============================== echo of input deck ==============================
ECHO

start molecule

#MEMORY
memory 3584 mb

#TITLE
title "CFCl4"

charge 0

#GEOMETRY
geometry units angstroms print xyz autosym
C          0.01249        0.78594        0.06926
Cl         1.79048        0.78594        0.06926
Cl        -0.58017        1.81550       -1.25361
F         -0.44802        1.27613        1.27601
Cl        -0.58017       -0.87448       -0.16093
end

BASIS "ao basis" SPHERICAL PRINT
#BASIS SET: (7s,4p,1d) -> [3s,2p,1d]
C    S
   1238.4016938              0.54568832082E-02
    186.29004992             0.40638409211E-01
     42.251176346            0.18025593888
     11.676557932            0.46315121755
      3.5930506482           0.44087173314
C    S
      0.40245147363          1.0000000
C    S
      0.13090182668          1.0000000
C    P
      9.4680970621           0.38387871728E-01
      2.0103545142           0.21117025112
      0.54771004707          0.51328172114
C    P
      0.15268613795          1.0000000
C    D
      0.8000000              1.0000000
#BASIS SET: (7s,4p,1d) -> [3s,2p,1d]
F    S
   2894.8325990             -0.53408255515E-02
    435.41939120            -0.39904258866E-01
     98.843328866           -0.17912768038
     27.485198001           -0.46758090825
      8.5405498171          -0.44653131020
F    S
      1.0654578038           1.0000000
F    S
      0.33247346748          1.0000000
F    P
     22.696633924           -0.45212874436E-01
      4.9872339257          -0.23754317067
      1.3491613954          -0.51287353587
F    P
      0.34829881977          1.0000000
F    D
      1.4000000              1.0000000
#BASIS SET: (10s,7p,1d) -> [4s,3p,1d]
Cl    S
  10449.8275660              0.19708362484E-02
   1571.7365221              0.14754727977E-01
    357.12065523             0.66679112875E-01
    100.25185935             0.17228924084
     30.812727554            0.15883786100
Cl    S
     51.923789434           -0.10009298909
      5.7045760975           0.60841752753
      2.3508376809           0.54352153355
Cl    S
      0.44605124672          1.0000000
Cl    S
      0.16848856190          1.0000000
Cl    P
    307.66790569            -0.87801484118E-02
     72.102015515           -0.63563355471E-01
     22.532680262           -0.24016428276
      7.8991765444          -0.47798866557
      2.8767268321          -0.38515850005
Cl    P
      0.77459363955          1.0000000
Cl    P
      0.21037699698          1.0000000
Cl    D
      0.6500000              1.0000000
END

#DFT
dft
  grid medium
  convergence energy 1e-07
  mult 1
  iterations 30
  xc m11-l
end

#OPT
driver
  default
  maxiter 100
end

set driver:linopt 0

#TASK
task dft optimize
task dft freq numerical

================================================================================

         Total DFT energy =    -1517.743820711524
@ Step       Energy      Delta E   Gmax     Grms     Xrms     Xmax   Walltime
@ ---- ---------------- -------- -------- -------- -------- -------- --------
@    0   -1517.74382071  0.0D+00  0.05837  0.02085  0.00000  0.00000      7.0
         Total DFT energy =    -1517.750049382715
@    1   -1517.75004938 -6.2D-03  0.01386  0.00440  0.04448  0.13628     13.0
         Total DFT energy =    -1517.750289907885
@    2   -1517.75028991 -2.4D-04  0.00538  0.00175  0.01098  0.03599     18.9
         Total DFT energy =    -1517.750329113442
@    3   -1517.75032911 -3.9D-05  0.00028  0.00009  0.00351  0.01048     25.1
         Total DFT energy =    -1517.750329196486
@    4   -1517.75032920 -8.3D-08  0.00003  0.00001  0.00016  0.00050     29.9
@    4   -1517.75032920 -8.3D-08  0.00003  0.00001  0.00016  0.00050     29.9

 Output coordinates in angstroms (scale by  1.889725989 to convert to a.u.)

  No.       Tag          Charge          X              Y              Z
 ---- ---------------- ---------- -------------- -------------- --------------
    1 C                    6.0000     0.00000000    -0.00000000     0.26453001
    2 Cl                  17.0000    -0.11447797    -1.65810724    -0.29279653
    3 Cl                  17.0000     1.49320198     0.72991279    -0.29279653
    4 F                    9.0000     0.00000000    -0.00000000     1.56527927
    5 Cl                  17.0000    -1.37872401     0.92819446    -0.29279653

         Total DFT energy =    -1517.750329155696

                       DFT Final Molecular Orbital Analysis
                       ------------------------------------

 Vector    1  Occ=2.000000D+00  E=-1.019881D+02  Symmetry=e+

 Vector    3  Occ=2.000000D+00  E=-1.019880D+02  Symmetry=a

 Vector    4  Occ=2.000000D+00  E=-2.503501D+01  Symmetry=a

 Vector    5  Occ=2.000000D+00  E=-1.062826D+01  Symmetry=a

 Vector    6  Occ=2.000000D+00  E=-9.946044D+00  Symmetry=e+

 Vector    7  Occ=2.000000D+00  E=-9.946044D+00  Symmetry=e+

 Vector    8  Occ=2.000000D+00  E=-9.946034D+00  Symmetry=a

 Vector    9  Occ=2.000000D+00  E=-7.258941D+00  Symmetry=e+

 Vector   10  Occ=2.000000D+00  E=-7.258941D+00  Symmetry=e+

 Vector   11  Occ=2.000000D+00  E=-7.258921D+00  Symmetry=a

 Vector   12  Occ=2.000000D+00  E=-7.249739D+00  Symmetry=e+

 Vector   13  Occ=2.000000D+00  E=-7.249739D+00  Symmetry=e+

 Vector   14  Occ=2.000000D+00  E=-7.249734D+00  Symmetry=a

 Vector   15  Occ=2.000000D+00  E=-7.249698D+00  Symmetry=a

 Vector   16  Occ=2.000000D+00  E=-7.249679D+00  Symmetry=e+

 Vector   17  Occ=2.000000D+00  E=-7.249679D+00  Symmetry=e+

 Vector   18  Occ=2.000000D+00  E=-1.356830D+00  Symmetry=a

 Vector   19  Occ=2.000000D+00  E=-9.532995D-01  Symmetry=a

 Vector   20  Occ=2.000000D+00  E=-8.672262D-01  Symmetry=e+

 Vector   21  Occ=2.000000D+00  E=-8.672262D-01  Symmetry=e+

 Vector   22  Occ=2.000000D+00  E=-6.710255D-01  Symmetry=a

 Vector   23  Occ=2.000000D+00  E=-5.583496D-01  Symmetry=a

 Vector   24  Occ=2.000000D+00  E=-5.428645D-01  Symmetry=e+

 Vector   25  Occ=2.000000D+00  E=-5.428645D-01  Symmetry=e+

 Vector   26  Occ=2.000000D+00  E=-4.264713D-01  Symmetry=e+

 Vector   27  Occ=2.000000D+00  E=-4.264713D-01  Symmetry=e+

 Vector   28  Occ=2.000000D+00  E=-3.559521D-01  Symmetry=a

 Vector   29  Occ=2.000000D+00  E=-3.475174D-01  Symmetry=e+

 Vector   30  Occ=2.000000D+00  E=-3.475174D-01  Symmetry=e+

 Vector   31  Occ=2.000000D+00  E=-3.174391D-01  Symmetry=e+

 Vector   32  Occ=2.000000D+00  E=-3.174391D-01  Symmetry=e+

 Vector   33  Occ=2.000000D+00  E=-3.033107D-01  Symmetry=a

 Vector   34  Occ=0.000000D+00  E=-6.764304D-02  Symmetry=a

 Vector   35  Occ=0.000000D+00  E=-4.297474D-03  Symmetry=e+

 Vector   36  Occ=0.000000D+00  E=-4.297474D-03  Symmetry=e+

 Vector   37  Occ=0.000000D+00  E= 9.049377D-02  Symmetry=a

 Vector   38  Occ=0.000000D+00  E= 3.105174D-01  Symmetry=a

 Vector   39  Occ=0.000000D+00  E= 3.617602D-01  Symmetry=e+

 Vector   40  Occ=0.000000D+00  E= 3.617602D-01  Symmetry=e+

 Vector   41  Occ=0.000000D+00  E= 4.404435D-01  Symmetry=a

 Vector   42  Occ=0.000000D+00  E= 4.749532D-01  Symmetry=e+

 Vector   43  Occ=0.000000D+00  E= 4.749532D-01  Symmetry=e+

 Vector   44  Occ=0.000000D+00  E= 5.762054D-01  Symmetry=a

 Vector   45  Occ=0.000000D+00  E= 5.912235D-01  Symmetry=e+

 Vector   46  Occ=0.000000D+00  E= 5.912235D-01  Symmetry=e+

 Vector   47  Occ=0.000000D+00  E= 6.513970D-01  Symmetry=a

 Vector   48  Occ=0.000000D+00  E= 6.709358D-01  Symmetry=e+

 Vector   49  Occ=0.000000D+00  E= 6.709358D-01  Symmetry=e+

 Vector   50  Occ=0.000000D+00  E= 6.875654D-01  Symmetry=e+

 Vector   51  Occ=0.000000D+00  E= 6.875654D-01  Symmetry=e+

 Vector   52  Occ=0.000000D+00  E= 6.882836D-01  Symmetry=a

 Vector   53  Occ=0.000000D+00  E= 6.943601D-01  Symmetry=a

 Vector   54  Occ=0.000000D+00  E= 7.276660D-01  Symmetry=e+

 Vector   55  Occ=0.000000D+00  E= 7.276660D-01  Symmetry=e+

 Vector   56  Occ=0.000000D+00  E= 7.592471D-01  Symmetry=a

 Vector   57  Occ=0.000000D+00  E= 7.884891D-01  Symmetry=e+

 Vector   58  Occ=0.000000D+00  E= 7.884891D-01  Symmetry=e+

 Vector   59  Occ=0.000000D+00  E= 7.892414D-01  Symmetry=a

 Vector   60  Occ=0.000000D+00  E= 8.369962D-01  Symmetry=e+

 Vector   61  Occ=0.000000D+00  E= 8.369962D-01  Symmetry=e+

 Vector   62  Occ=0.000000D+00  E= 9.992004D-01  Symmetry=a

 Vector   63  Occ=0.000000D+00  E= 1.009058D+00  Symmetry=a

 Vector   64  Occ=0.000000D+00  E= 1.042956D+00  Symmetry=e+

 Vector   65  Occ=0.000000D+00  E= 1.042956D+00  Symmetry=e+

 Vector   66  Occ=0.000000D+00  E= 1.197775D+00  Symmetry=a

 Vector   67  Occ=0.000000D+00  E= 1.236483D+00  Symmetry=e+

 Vector   68  Occ=0.000000D+00  E= 1.236483D+00  Symmetry=e+

 Vector   69  Occ=0.000000D+00  E= 1.330333D+00  Symmetry=a

 Vector   70  Occ=0.000000D+00  E= 1.405030D+00  Symmetry=e+

 Vector   71  Occ=0.000000D+00  E= 1.405030D+00  Symmetry=e+

 Vector   72  Occ=0.000000D+00  E= 1.632891D+00  Symmetry=e+

 Vector   73  Occ=0.000000D+00  E= 1.632891D+00  Symmetry=e+

 Vector   74  Occ=0.000000D+00  E= 1.825930D+00  Symmetry=a

 Vector   75  Occ=0.000000D+00  E= 2.033773D+00  Symmetry=e+

 Vector   76  Occ=0.000000D+00  E= 2.033773D+00  Symmetry=e+

 Vector   77  Occ=0.000000D+00  E= 2.093528D+00  Symmetry=a

 Vector   78  Occ=0.000000D+00  E= 3.054640D+00  Symmetry=e+

 Vector   79  Occ=0.000000D+00  E= 3.054640D+00  Symmetry=e+

 Vector   80  Occ=0.000000D+00  E= 3.341976D+00  Symmetry=e+

 Vector   81  Occ=0.000000D+00  E= 3.341976D+00  Symmetry=e+

 Vector   82  Occ=0.000000D+00  E= 3.852313D+00  Symmetry=a

     Multipole analysis of the density
     ---------------------------------

     L   x y z        total         alpha         beta         nuclear
     -   - - -        -----         -----         ----         -------
     0   0 0 0     -0.000000    -33.000000    -33.000000     66.000000

     1   1 0 0     -0.000000     -0.000000     -0.000000      0.000000
     1   0 1 0     -0.000000     -0.000000     -0.000000      0.000000
     1   0 0 1     -0.085053     -0.743681     -0.743681      1.402310

     2   2 0 0    -34.540337   -143.046327   -143.046327    251.552317
     2   1 1 0      0.000000      0.000000      0.000000      0.000000
     2   1 0 1      0.000000      0.000000      0.000000      0.000000
     2   0 2 0    -34.540337   -143.046327   -143.046327    251.552317
     2   0 1 1      0.000000      0.000000      0.000000      0.000000

         Total DFT energy =    -1517.750333620018
         Total DFT energy =    -1517.750333022014
         Total DFT energy =    -1517.750333933585
         Total DFT energy =    -1517.750332843894
         Total DFT energy =    -1517.750324217364
         Total DFT energy =    -1517.750321898484
         Total DFT energy =    -1517.750344004425
         Total DFT energy =    -1517.750344685312
         Total DFT energy =    -1517.750344354353
         Total DFT energy =    -1517.750344318580
         Total DFT energy =    -1517.750327587184
         Total DFT energy =    -1517.750325200858
         Total DFT energy =    -1517.750340118574
         Total DFT energy =    -1517.750341576615
         Total DFT energy =    -1517.750343552392
         Total DFT energy =    -1517.750343983781
         Total DFT energy =    -1517.750345200704
         Total DFT energy =    -1517.750345221094
 Zero-Point correction to Energy  =    7.354 kcal/mol  (  0.011720 au)
 Thermal correction to Energy     =   10.541 kcal/mol  (  0.016797 au)
 Thermal correction to Enthalpy   =   11.133 kcal/mol  (  0.017741 au)
 Total Entropy                    =   73.503 cal/mol-K
   - Translational                =   40.614 cal/mol-K (mol. weight = 135.9050)
   - Rotational                   =   25.577 cal/mol-K (symmetry #  =        3)
   - Vibrational                  =    7.313 cal/mol-K
   - Translational                  =    2.979 cal/mol-K
   - Rotational                     =    2.979 cal/mol-K
   - Vibrational                    =   10.427 cal/mol-K
 P.Frequency       -0.00       -0.00       -0.00       -0.00        0.00        0.00
 P.Frequency      250.59      250.59      361.81      413.07      413.07      552.34
 P.Frequency      853.38      853.38     1198.70

 Normal Eigenvalue ||           Projected Infra Red Intensities
  Mode   [cm**-1]  || [atomic units] [(debye/angs)**2] [(KM/mol)] [arbitrary]
 ------ ---------- || -------------- ----------------- ---------- -----------
    1       -0.000 ||    0.000001           0.000         0.001       0.000
    2       -0.000 ||    0.000004           0.000         0.004       0.001
    3       -0.000 ||    0.000005           0.000         0.005       0.001
    4       -0.000 ||    0.000000           0.000         0.000       0.000
    5        0.000 ||    0.000003           0.000         0.003       0.001
    6        0.000 ||    0.000002           0.000         0.002       0.000
    7      250.590 ||    0.000000           0.000         0.000       0.000
    8      250.590 ||    0.000000           0.000         0.000       0.000
    9      361.815 ||    0.000000           0.000         0.000       0.000
   10      413.070 ||    0.000218           0.005         0.212       0.035
   11      413.070 ||    0.000218           0.005         0.212       0.035
   12      552.342 ||    0.004437           0.102         4.325       0.723
   13      853.375 ||    0.331890           7.657       323.542      54.048
   14      853.375 ||    0.331890           7.657       323.542      54.048
   15     1198.699 ||    0.252435           5.824       246.087      41.109
 ----------------------------------------------------------------------------

 Total times  cpu:      312.1s     wall:      279.3s
