============================== echo of input deck ==============================
ECHO

start molecule

#MEMORY
memory 3584 mb

#TITLE
title "CFCl4"

charge 0

#GEOMETRY
geometry units angstroms print xyz autosym
C          0.01249        0.78594        0.06926
Cl         1.79048        0.78594        0.06926
Cl        -0.58017        1.81550       -1.25361
F         -0.44802        1.27613        1.27601
Cl        -0.58017       -0.87448       -0.16093
end

BASIS "ao basis" SPHERICAL PRINT
#BASIS SET: (7s,4p,1d) -> [3s,2p,1d]
C    S
   1238.4016938              0.54568832082E-02
    186.29004992             0.40638409211E-01
     42.251176346            0.18025593888
     11.676557932            0.46315121755
      3.5930506482           0.44087173314
C    S
      0.40245147363          1.0000000
C    S
      0.13090182668          1.0000000
C    P
      9.4680970621           0.38387871728E-01
      2.0103545142           0.21117025112
      0.54771004707          0.51328172114
C    P
      0.15268613795          1.0000000
C    D
      0.8000000              1.0000000
#BASIS SET: (7s,4p,1d) -> [3s,2p,1d]
F    S
   2894.8325990             -0.53408255515E-02
    435.41939120            -0.39904258866E-01
     98.843328866           -0.17912768038
     27.485198001           -0.46758090825
      8.5405498171          -0.44653131020
F    S
      1.0654578038           1.0000000
F    S
      0.33247346748          1.0000000
F    P
     22.696633924           -0.45212874436E-01
      4.9872339257          -0.23754317067
      1.3491613954          -0.51287353587
F    P
      0.34829881977          1.0000000
F    D
      1.4000000              1.0000000
#BASIS SET: (10s,7p,1d) -> [4s,3p,1d]
Cl    S
  10449.8275660              0.19708362484E-02
   1571.7365221              0.14754727977E-01
    357.12065523             0.66679112875E-01
    100.25185935             0.17228924084
     30.812727554            0.15883786100
Cl    S
     51.923789434           -0.10009298909
      5.7045760975           0.60841752753
      2.3508376809           0.54352153355
Cl    S
      0.44605124672          1.0000000
Cl    S
      0.16848856190          1.0000000
Cl    P
    307.66790569            -0.87801484118E-02
     72.102015515           -0.63563355471E-01
     22.532680262           -0.24016428276
      7.8991765444          -0.47798866557
      2.8767268321          -0.38515850005
Cl    P
      0.77459363955          1.0000000
Cl    P
      0.21037699698          1.0000000
Cl    D
      0.6500000              1.0000000
END

#DFT
dft
  grid medium
  convergence energy 1e-07
  mult 1
  iterations 30
  xc m11
end

#OPT
driver
  default
  maxiter 100
end

set driver:linopt 0

#TASK
task dft optimize
task dft freq numerical

================================================================================

         Total DFT energy =    -1517.870233565097
@ Step       Energy      Delta E   Gmax     Grms     Xrms     Xmax   Walltime
@ ---- ---------------- -------- -------- -------- -------- -------- --------
@    0   -1517.87023357  0.0D+00  0.03754  0.01259  0.00000  0.00000     17.5
         Total DFT energy =    -1517.872392144094
@    1   -1517.87239214 -2.2D-03  0.00820  0.00268  0.03238  0.09713     33.5
         Total DFT energy =    -1517.872500781021
@    2   -1517.87250078 -1.1D-04  0.00061  0.00027  0.00467  0.01268     47.9
         Total DFT energy =    -1517.872502964567
@    3   -1517.87250296 -2.2D-06  0.00001  0.00001  0.00143  0.00316     59.1
         Total DFT energy =    -1517.872502987661
@    4   -1517.87250299 -2.3D-08  0.00000  0.00000  0.00006  0.00011     68.0
@    4   -1517.87250299 -2.3D-08  0.00000  0.00000  0.00006  0.00011     68.0

 Output coordinates in angstroms (scale by  1.889725989 to convert to a.u.)

  No.       Tag          Charge          X              Y              Z
 ---- ---------------- ---------- -------------- -------------- --------------
    1 C                    6.0000     0.00000000    -0.00000000     0.26333616
    2 Cl                  17.0000    -0.11572384    -1.67615247    -0.30238815
    3 Cl                  17.0000     1.50945254     0.73785645    -0.30238815
    4 F                    9.0000    -0.00000000     0.00000000     1.59524797
    5 Cl                  17.0000    -1.39372870     0.93829602    -0.30238815

         Total DFT energy =    -1517.872502988607

                       DFT Final Molecular Orbital Analysis
                       ------------------------------------

 Vector    1  Occ=2.000000D+00  E=-1.021333D+02  Symmetry=e+

 Vector    3  Occ=2.000000D+00  E=-1.021332D+02  Symmetry=a

 Vector    4  Occ=2.000000D+00  E=-2.510723D+01  Symmetry=a

 Vector    5  Occ=2.000000D+00  E=-1.070162D+01  Symmetry=a

 Vector    6  Occ=2.000000D+00  E=-9.664372D+00  Symmetry=e+

 Vector    7  Occ=2.000000D+00  E=-9.664372D+00  Symmetry=e+

 Vector    8  Occ=2.000000D+00  E=-9.664289D+00  Symmetry=a

 Vector    9  Occ=2.000000D+00  E=-7.466694D+00  Symmetry=e+

 Vector   10  Occ=2.000000D+00  E=-7.466694D+00  Symmetry=e+

 Vector   11  Occ=2.000000D+00  E=-7.466660D+00  Symmetry=a

 Vector   12  Occ=2.000000D+00  E=-7.457166D+00  Symmetry=e+

 Vector   13  Occ=2.000000D+00  E=-7.457166D+00  Symmetry=e+

 Vector   14  Occ=2.000000D+00  E=-7.457157D+00  Symmetry=a

 Vector   15  Occ=2.000000D+00  E=-7.457065D+00  Symmetry=a

 Vector   16  Occ=2.000000D+00  E=-7.457039D+00  Symmetry=e+

 Vector   17  Occ=2.000000D+00  E=-7.457039D+00  Symmetry=e+

 Vector   18  Occ=2.000000D+00  E=-1.410278D+00  Symmetry=a

 Vector   19  Occ=2.000000D+00  E=-1.083747D+00  Symmetry=a

 Vector   20  Occ=2.000000D+00  E=-9.917771D-01  Symmetry=e+

 Vector   21  Occ=2.000000D+00  E=-9.917771D-01  Symmetry=e+

 Vector   22  Occ=2.000000D+00  E=-7.942249D-01  Symmetry=a

 Vector   23  Occ=2.000000D+00  E=-6.798013D-01  Symmetry=a

 Vector   24  Occ=2.000000D+00  E=-6.793063D-01  Symmetry=e+

 Vector   25  Occ=2.000000D+00  E=-6.793063D-01  Symmetry=e+

 Vector   26  Occ=2.000000D+00  E=-5.487231D-01  Symmetry=e+

 Vector   27  Occ=2.000000D+00  E=-5.487231D-01  Symmetry=e+

 Vector   28  Occ=2.000000D+00  E=-4.869883D-01  Symmetry=a

 Vector   29  Occ=2.000000D+00  E=-4.724585D-01  Symmetry=e+

 Vector   30  Occ=2.000000D+00  E=-4.724585D-01  Symmetry=e+

 Vector   31  Occ=2.000000D+00  E=-4.431634D-01  Symmetry=e+

 Vector   32  Occ=2.000000D+00  E=-4.431634D-01  Symmetry=e+

 Vector   33  Occ=2.000000D+00  E=-4.292732D-01  Symmetry=a

 Vector   34  Occ=0.000000D+00  E= 5.646675D-02  Symmetry=a

 Vector   35  Occ=0.000000D+00  E= 1.083681D-01  Symmetry=e+

 Vector   36  Occ=0.000000D+00  E= 1.083681D-01  Symmetry=e+

 Vector   37  Occ=0.000000D+00  E= 1.960597D-01  Symmetry=a

 Vector   38  Occ=0.000000D+00  E= 4.351719D-01  Symmetry=a

 Vector   39  Occ=0.000000D+00  E= 4.975844D-01  Symmetry=e+

 Vector   40  Occ=0.000000D+00  E= 4.975844D-01  Symmetry=e+

 Vector   41  Occ=0.000000D+00  E= 5.458304D-01  Symmetry=a

 Vector   42  Occ=0.000000D+00  E= 6.054488D-01  Symmetry=e+

 Vector   43  Occ=0.000000D+00  E= 6.054488D-01  Symmetry=e+

 Vector   44  Occ=0.000000D+00  E= 7.170860D-01  Symmetry=a

 Vector   45  Occ=0.000000D+00  E= 7.543759D-01  Symmetry=e+

 Vector   46  Occ=0.000000D+00  E= 7.543759D-01  Symmetry=e+

 Vector   47  Occ=0.000000D+00  E= 8.084072D-01  Symmetry=e+

 Vector   48  Occ=0.000000D+00  E= 8.084072D-01  Symmetry=e+

 Vector   49  Occ=0.000000D+00  E= 8.142072D-01  Symmetry=a

 Vector   50  Occ=0.000000D+00  E= 8.304822D-01  Symmetry=a

 Vector   51  Occ=0.000000D+00  E= 8.455549D-01  Symmetry=e+

 Vector   52  Occ=0.000000D+00  E= 8.455549D-01  Symmetry=e+

 Vector   53  Occ=0.000000D+00  E= 8.594587D-01  Symmetry=e+

 Vector   54  Occ=0.000000D+00  E= 8.594587D-01  Symmetry=e+

 Vector   55  Occ=0.000000D+00  E= 8.610525D-01  Symmetry=a

 Vector   56  Occ=0.000000D+00  E= 8.618002D-01  Symmetry=a

 Vector   57  Occ=0.000000D+00  E= 9.016808D-01  Symmetry=a

 Vector   58  Occ=0.000000D+00  E= 9.021441D-01  Symmetry=e+

 Vector   59  Occ=0.000000D+00  E= 9.021441D-01  Symmetry=e+

 Vector   60  Occ=0.000000D+00  E= 9.360193D-01  Symmetry=e+

 Vector   61  Occ=0.000000D+00  E= 9.360193D-01  Symmetry=e+

 Vector   62  Occ=0.000000D+00  E= 1.087958D+00  Symmetry=a

 Vector   63  Occ=0.000000D+00  E= 1.122554D+00  Symmetry=a

 Vector   64  Occ=0.000000D+00  E= 1.158636D+00  Symmetry=e+

 Vector   65  Occ=0.000000D+00  E= 1.158636D+00  Symmetry=e+

 Vector   66  Occ=0.000000D+00  E= 1.322357D+00  Symmetry=e+

 Vector   67  Occ=0.000000D+00  E= 1.322357D+00  Symmetry=e+

 Vector   68  Occ=0.000000D+00  E= 1.329319D+00  Symmetry=a

 Vector   69  Occ=0.000000D+00  E= 1.423433D+00  Symmetry=a

 Vector   70  Occ=0.000000D+00  E= 1.467867D+00  Symmetry=e+

 Vector   71  Occ=0.000000D+00  E= 1.467867D+00  Symmetry=e+

 Vector   72  Occ=0.000000D+00  E= 1.772691D+00  Symmetry=e+

 Vector   73  Occ=0.000000D+00  E= 1.772691D+00  Symmetry=e+

 Vector   74  Occ=0.000000D+00  E= 1.916914D+00  Symmetry=a

 Vector   75  Occ=0.000000D+00  E= 2.136258D+00  Symmetry=e+

 Vector   76  Occ=0.000000D+00  E= 2.136258D+00  Symmetry=e+

 Vector   77  Occ=0.000000D+00  E= 2.156397D+00  Symmetry=a

 Vector   78  Occ=0.000000D+00  E= 3.126620D+00  Symmetry=e+

 Vector   79  Occ=0.000000D+00  E= 3.126620D+00  Symmetry=e+

 Vector   80  Occ=0.000000D+00  E= 3.371848D+00  Symmetry=e+

 Vector   81  Occ=0.000000D+00  E= 3.371848D+00  Symmetry=e+

 Vector   82  Occ=0.000000D+00  E= 3.815881D+00  Symmetry=a

     Multipole analysis of the density
     ---------------------------------

     L   x y z        total         alpha         beta         nuclear
     -   - - -        -----         -----         ----         -------
     0   0 0 0     -0.000000    -33.000000    -33.000000     66.000000

     1   1 0 0     -0.000000      0.000000      0.000000     -0.000000
     1   0 1 0     -0.000000     -0.000000     -0.000000      0.000000
     1   0 0 1     -0.129563     -0.551814     -0.551814      0.974065

     2   2 0 0    -34.698984   -145.878199   -145.878199    257.057414
     2   1 1 0     -0.000000     -0.000000     -0.000000      0.000000
     2   1 0 1     -0.000000     -0.000000     -0.000000      0.000000
     2   0 2 0    -34.698984   -145.878199   -145.878199    257.057414
     2   0 1 1      0.000000      0.000000      0.000000      0.000000

         Total DFT energy =    -1517.872517712188
         Total DFT energy =    -1517.872515551870
         Total DFT energy =    -1517.872517172092
         Total DFT energy =    -1517.872516100838
         Total DFT energy =    -1517.872509365794
         Total DFT energy =    -1517.872509976973
         Total DFT energy =    -1517.872527993664
         Total DFT energy =    -1517.872528287205
         Total DFT energy =    -1517.872528035817
         Total DFT energy =    -1517.872528238008
         Total DFT energy =    -1517.872511500211
         Total DFT energy =    -1517.872509856290
         Total DFT energy =    -1517.872523112809
         Total DFT energy =    -1517.872525379019
         Total DFT energy =    -1517.872528019320
         Total DFT energy =    -1517.872526677791
         Total DFT energy =    -1517.872528824301
         Total DFT energy =    -1517.872528850314
 Zero-Point correction to Energy  =    7.334 kcal/mol  (  0.011687 au)
 Thermal correction to Energy     =   10.528 kcal/mol  (  0.016778 au)
 Thermal correction to Enthalpy   =   11.120 kcal/mol  (  0.017722 au)
 Total Entropy                    =   73.637 cal/mol-K
   - Translational                =   40.614 cal/mol-K (mol. weight = 135.9050)
   - Rotational                   =   25.652 cal/mol-K (symmetry #  =        3)
   - Vibrational                  =    7.370 cal/mol-K
   - Translational                  =    2.979 cal/mol-K
   - Rotational                     =    2.979 cal/mol-K
   - Vibrational                    =   10.444 cal/mol-K
 P.Frequency       -0.00       -0.00        0.00        0.00        0.00        0.00
 P.Frequency      250.16      250.16      357.80      407.28      407.28      549.13
 P.Frequency      867.01      867.01     1176.50

 Normal Eigenvalue ||           Projected Infra Red Intensities
  Mode   [cm**-1]  || [atomic units] [(debye/angs)**2] [(KM/mol)] [arbitrary]
 ------ ---------- || -------------- ----------------- ---------- -----------
    1       -0.000 ||    0.000000           0.000         0.000       0.000
    2       -0.000 ||    0.000000           0.000         0.000       0.000
    3        0.000 ||    0.000017           0.000         0.017       0.003
    4        0.000 ||    0.000005           0.000         0.005       0.001
    5        0.000 ||    0.000016           0.000         0.016       0.003
    6        0.000 ||    0.000008           0.000         0.008       0.002
    7      250.156 ||    0.000002           0.000         0.002       0.000
    8      250.156 ||    0.000002           0.000         0.002       0.000
    9      357.797 ||    0.000051           0.001         0.050       0.010
   10      407.279 ||    0.000012           0.000         0.011       0.002
   11      407.279 ||    0.000012           0.000         0.011       0.002
   12      549.129 ||    0.003427           0.079         3.341       0.644
   13      867.010 ||    0.277894           6.411       270.905      52.196
   14      867.010 ||    0.277894           6.411       270.905      52.196
   15     1176.501 ||    0.239265           5.520       233.247      44.941
 ----------------------------------------------------------------------------

 Total times  cpu:      651.9s     wall:      621.2s
