============================== echo of input deck ==============================
ECHO

start molecule

#MEMORY
memory 3584 mb

#TITLE
title "CFCl4"

charge 0

#GEOMETRY
geometry units angstroms print xyz autosym
C          0.01249        0.78594        0.06926
Cl         1.79048        0.78594        0.06926
Cl        -0.58017        1.81550       -1.25361
F         -0.44802        1.27613        1.27601
Cl        -0.58017       -0.87448       -0.16093
end

BASIS "ao basis" SPHERICAL PRINT
#BASIS SET: (7s,4p,1d) -> [3s,2p,1d]
C    S
   1238.4016938              0.54568832082E-02
    186.29004992             0.40638409211E-01
     42.251176346            0.18025593888
     11.676557932            0.46315121755
      3.5930506482           0.44087173314
C    S
      0.40245147363          1.0000000
C    S
      0.13090182668          1.0000000
C    P
      9.4680970621           0.38387871728E-01
      2.0103545142           0.21117025112
      0.54771004707          0.51328172114
C    P
      0.15268613795          1.0000000
C    D
      0.8000000              1.0000000
#BASIS SET: (7s,4p,1d) -> [3s,2p,1d]
F    S
   2894.8325990             -0.53408255515E-02
    435.41939120            -0.39904258866E-01
     98.843328866           -0.17912768038
     27.485198001           -0.46758090825
      8.5405498171          -0.44653131020
F    S
      1.0654578038           1.0000000
F    S
      0.33247346748          1.0000000
F    P
     22.696633924           -0.45212874436E-01
      4.9872339257          -0.23754317067
      1.3491613954          -0.51287353587
F    P
      0.34829881977          1.0000000
F    D
      1.4000000              1.0000000
#BASIS SET: (10s,7p,1d) -> [4s,3p,1d]
Cl    S
  10449.8275660              0.19708362484E-02
   1571.7365221              0.14754727977E-01
    357.12065523             0.66679112875E-01
    100.25185935             0.17228924084
     30.812727554            0.15883786100
Cl    S
     51.923789434           -0.10009298909
      5.7045760975           0.60841752753
      2.3508376809           0.54352153355
Cl    S
      0.44605124672          1.0000000
Cl    S
      0.16848856190          1.0000000
Cl    P
    307.66790569            -0.87801484118E-02
     72.102015515           -0.63563355471E-01
     22.532680262           -0.24016428276
      7.8991765444          -0.47798866557
      2.8767268321          -0.38515850005
Cl    P
      0.77459363955          1.0000000
Cl    P
      0.21037699698          1.0000000
Cl    D
      0.6500000              1.0000000
END

#DFT
dft
  grid medium
  convergence energy 1e-07
  mult 1
  iterations 30
  xc sogga11-x
end

#OPT
driver
  default
  maxiter 100
end

set driver:linopt 0

#TASK
task dft optimize
task dft freq numerical

================================================================================

         Total DFT energy =    -1517.951534571846
@ Step       Energy      Delta E   Gmax     Grms     Xrms     Xmax   Walltime
@ ---- ---------------- -------- -------- -------- -------- -------- --------
@    0   -1517.95153457  0.0D+00  0.04213  0.01474  0.00000  0.00000      4.9
         Total DFT energy =    -1517.954468858538
@    1   -1517.95446886 -2.9D-03  0.00947  0.00320  0.03063  0.09654     10.0
         Total DFT energy =    -1517.954585676107
@    2   -1517.95458568 -1.2D-04  0.00168  0.00055  0.00782  0.02576     14.7
         Total DFT energy =    -1517.954588870483
@    3   -1517.95458887 -3.2D-06  0.00007  0.00002  0.00097  0.00333     18.3
         Total DFT energy =    -1517.954589002423
@    4   -1517.95458900 -1.3D-07  0.00001  0.00000  0.00004  0.00012     21.2
@    4   -1517.95458900 -1.3D-07  0.00001  0.00000  0.00004  0.00012     21.2

 Output coordinates in angstroms (scale by  1.889725989 to convert to a.u.)

  No.       Tag          Charge          X              Y              Z
 ---- ---------------- ---------- -------------- -------------- --------------
    1 C                    6.0000     0.00000000     0.00000000     0.25875283
    2 Cl                  17.0000    -0.11530302    -1.67005731    -0.29844621
    3 Cl                  17.0000     1.50396357     0.73517331    -0.29844621
    4 F                    9.0000     0.00000000     0.00000000     1.58800550
    5 Cl                  17.0000    -1.38866054     0.93488400    -0.29844621

         Total DFT energy =    -1517.954589011911

                       DFT Final Molecular Orbital Analysis
                       ------------------------------------

 Vector    1  Occ=2.000000D+00  E=-1.023829D+02  Symmetry=e+

 Vector    3  Occ=2.000000D+00  E=-1.023828D+02  Symmetry=a

 Vector    4  Occ=2.000000D+00  E=-2.517272D+01  Symmetry=a

 Vector    5  Occ=2.000000D+00  E=-1.071901D+01  Symmetry=a

 Vector    6  Occ=2.000000D+00  E=-9.792831D+00  Symmetry=e+

 Vector    7  Occ=2.000000D+00  E=-9.792831D+00  Symmetry=e+

 Vector    8  Occ=2.000000D+00  E=-9.792803D+00  Symmetry=a

 Vector    9  Occ=2.000000D+00  E=-7.460777D+00  Symmetry=e+

 Vector   10  Occ=2.000000D+00  E=-7.460777D+00  Symmetry=e+

 Vector   11  Occ=2.000000D+00  E=-7.460756D+00  Symmetry=a

 Vector   12  Occ=2.000000D+00  E=-7.451145D+00  Symmetry=e+

 Vector   13  Occ=2.000000D+00  E=-7.451145D+00  Symmetry=e+

 Vector   14  Occ=2.000000D+00  E=-7.451139D+00  Symmetry=a

 Vector   15  Occ=2.000000D+00  E=-7.451066D+00  Symmetry=a

 Vector   16  Occ=2.000000D+00  E=-7.451050D+00  Symmetry=e+

 Vector   17  Occ=2.000000D+00  E=-7.451050D+00  Symmetry=e+

 Vector   18  Occ=2.000000D+00  E=-1.400942D+00  Symmetry=a

 Vector   19  Occ=2.000000D+00  E=-1.038970D+00  Symmetry=a

 Vector   20  Occ=2.000000D+00  E=-9.431914D-01  Symmetry=e+

 Vector   21  Occ=2.000000D+00  E=-9.431914D-01  Symmetry=e+

 Vector   22  Occ=2.000000D+00  E=-7.386001D-01  Symmetry=a

 Vector   23  Occ=2.000000D+00  E=-6.216498D-01  Symmetry=a

 Vector   24  Occ=2.000000D+00  E=-6.163617D-01  Symmetry=e+

 Vector   25  Occ=2.000000D+00  E=-6.163617D-01  Symmetry=e+

 Vector   26  Occ=2.000000D+00  E=-4.906928D-01  Symmetry=e+

 Vector   27  Occ=2.000000D+00  E=-4.906928D-01  Symmetry=e+

 Vector   28  Occ=2.000000D+00  E=-4.230522D-01  Symmetry=a

 Vector   29  Occ=2.000000D+00  E=-4.111456D-01  Symmetry=e+

 Vector   30  Occ=2.000000D+00  E=-4.111456D-01  Symmetry=e+

 Vector   31  Occ=2.000000D+00  E=-3.801191D-01  Symmetry=e+

 Vector   32  Occ=2.000000D+00  E=-3.801191D-01  Symmetry=e+

 Vector   33  Occ=2.000000D+00  E=-3.654064D-01  Symmetry=a

 Vector   34  Occ=0.000000D+00  E= 2.352855D-03  Symmetry=a

 Vector   35  Occ=0.000000D+00  E= 6.020886D-02  Symmetry=e+

 Vector   36  Occ=0.000000D+00  E= 6.020886D-02  Symmetry=e+

 Vector   37  Occ=0.000000D+00  E= 1.426720D-01  Symmetry=a

 Vector   38  Occ=0.000000D+00  E= 3.834835D-01  Symmetry=a

 Vector   39  Occ=0.000000D+00  E= 4.430853D-01  Symmetry=e+

 Vector   40  Occ=0.000000D+00  E= 4.430853D-01  Symmetry=e+

 Vector   41  Occ=0.000000D+00  E= 5.046637D-01  Symmetry=a

 Vector   42  Occ=0.000000D+00  E= 5.652453D-01  Symmetry=e+

 Vector   43  Occ=0.000000D+00  E= 5.652453D-01  Symmetry=e+

 Vector   44  Occ=0.000000D+00  E= 6.676305D-01  Symmetry=a

 Vector   45  Occ=0.000000D+00  E= 6.906864D-01  Symmetry=e+

 Vector   46  Occ=0.000000D+00  E= 6.906864D-01  Symmetry=e+

 Vector   47  Occ=0.000000D+00  E= 7.566756D-01  Symmetry=a

 Vector   48  Occ=0.000000D+00  E= 7.635853D-01  Symmetry=e+

 Vector   49  Occ=0.000000D+00  E= 7.635853D-01  Symmetry=e+

 Vector   50  Occ=0.000000D+00  E= 7.827396D-01  Symmetry=a

 Vector   51  Occ=0.000000D+00  E= 7.858585D-01  Symmetry=e+

 Vector   52  Occ=0.000000D+00  E= 7.858585D-01  Symmetry=e+

 Vector   53  Occ=0.000000D+00  E= 7.949936D-01  Symmetry=a

 Vector   54  Occ=0.000000D+00  E= 8.147441D-01  Symmetry=e+

 Vector   55  Occ=0.000000D+00  E= 8.147441D-01  Symmetry=e+

 Vector   56  Occ=0.000000D+00  E= 8.308042D-01  Symmetry=a

 Vector   57  Occ=0.000000D+00  E= 8.693066D-01  Symmetry=e+

 Vector   58  Occ=0.000000D+00  E= 8.693066D-01  Symmetry=e+

 Vector   59  Occ=0.000000D+00  E= 8.699938D-01  Symmetry=a

 Vector   60  Occ=0.000000D+00  E= 9.109446D-01  Symmetry=e+

 Vector   61  Occ=0.000000D+00  E= 9.109446D-01  Symmetry=e+

 Vector   62  Occ=0.000000D+00  E= 1.080215D+00  Symmetry=a

 Vector   63  Occ=0.000000D+00  E= 1.082952D+00  Symmetry=a

 Vector   64  Occ=0.000000D+00  E= 1.132112D+00  Symmetry=e+

 Vector   65  Occ=0.000000D+00  E= 1.132112D+00  Symmetry=e+

 Vector   66  Occ=0.000000D+00  E= 1.289441D+00  Symmetry=a

 Vector   67  Occ=0.000000D+00  E= 1.307873D+00  Symmetry=e+

 Vector   68  Occ=0.000000D+00  E= 1.307873D+00  Symmetry=e+

 Vector   69  Occ=0.000000D+00  E= 1.406458D+00  Symmetry=a

 Vector   70  Occ=0.000000D+00  E= 1.458895D+00  Symmetry=e+

 Vector   71  Occ=0.000000D+00  E= 1.458895D+00  Symmetry=e+

 Vector   72  Occ=0.000000D+00  E= 1.732097D+00  Symmetry=e+

 Vector   73  Occ=0.000000D+00  E= 1.732097D+00  Symmetry=e+

 Vector   74  Occ=0.000000D+00  E= 1.928684D+00  Symmetry=a

 Vector   75  Occ=0.000000D+00  E= 2.124169D+00  Symmetry=e+

 Vector   76  Occ=0.000000D+00  E= 2.124169D+00  Symmetry=e+

 Vector   77  Occ=0.000000D+00  E= 2.136958D+00  Symmetry=a

 Vector   78  Occ=0.000000D+00  E= 3.099776D+00  Symmetry=e+

 Vector   79  Occ=0.000000D+00  E= 3.099776D+00  Symmetry=e+

 Vector   80  Occ=0.000000D+00  E= 3.354155D+00  Symmetry=e+

 Vector   81  Occ=0.000000D+00  E= 3.354155D+00  Symmetry=e+

 Vector   82  Occ=0.000000D+00  E= 3.830765D+00  Symmetry=a

     Multipole analysis of the density
     ---------------------------------

     L   x y z        total         alpha         beta         nuclear
     -   - - -        -----         -----         ----         -------
     0   0 0 0     -0.000000    -33.000000    -33.000000     66.000000

     1   1 0 0     -0.000000     -0.000000     -0.000000      0.000000
     1   0 1 0     -0.000000     -0.000000     -0.000000     -0.000000
     1   0 0 1     -0.148578     -0.663703     -0.663703      1.178829

     2   2 0 0    -34.682123   -144.936704   -144.936704    255.191284
     2   1 1 0      0.000000     -0.000000     -0.000000      0.000000
     2   1 0 1     -0.000000     -0.000000     -0.000000      0.000000
     2   0 2 0    -34.682123   -144.936704   -144.936704    255.191284
     2   0 1 1      0.000000      0.000000      0.000000      0.000000

         Total DFT energy =    -1517.954578442305
         Total DFT energy =    -1517.954578472312
         Total DFT energy =    -1517.954578384751
         Total DFT energy =    -1517.954578491681
         Total DFT energy =    -1517.954571172003
         Total DFT energy =    -1517.954571922171
         Total DFT energy =    -1517.954590620969
         Total DFT energy =    -1517.954590532886
         Total DFT energy =    -1517.954590653146
         Total DFT energy =    -1517.954590489523
         Total DFT energy =    -1517.954572470779
         Total DFT energy =    -1517.954573101442
         Total DFT energy =    -1517.954586512812
         Total DFT energy =    -1517.954586564081
         Total DFT energy =    -1517.954589698287
         Total DFT energy =    -1517.954589702034
         Total DFT energy =    -1517.954591387384
         Total DFT energy =    -1517.954591237929
 Zero-Point correction to Energy  =    7.463 kcal/mol  (  0.011893 au)
 Thermal correction to Energy     =   10.631 kcal/mol  (  0.016941 au)
 Thermal correction to Enthalpy   =   11.223 kcal/mol  (  0.017885 au)
 Total Entropy                    =   73.458 cal/mol-K
   - Translational                =   40.614 cal/mol-K (mol. weight = 135.9050)
   - Rotational                   =   25.628 cal/mol-K (symmetry #  =        3)
   - Vibrational                  =    7.216 cal/mol-K
   - Translational                  =    2.979 cal/mol-K
   - Rotational                     =    2.979 cal/mol-K
   - Vibrational                    =   10.303 cal/mol-K
 P.Frequency        0.00        0.00        0.00        0.00        0.00        0.00
 P.Frequency      252.22      252.22      364.56      414.13      414.13      558.86
 P.Frequency      887.80      887.80     1191.03

 Normal Eigenvalue ||           Projected Infra Red Intensities
  Mode   [cm**-1]  || [atomic units] [(debye/angs)**2] [(KM/mol)] [arbitrary]
 ------ ---------- || -------------- ----------------- ---------- -----------
    1        0.000 ||    0.000016           0.000         0.016       0.003
    2        0.000 ||    0.000000           0.000         0.000       0.000
    3        0.000 ||    0.000012           0.000         0.011       0.002
    4        0.000 ||    0.000007           0.000         0.007       0.001
    5        0.000 ||    0.000022           0.001         0.021       0.004
    6        0.000 ||    0.000009           0.000         0.009       0.002
    7      252.217 ||    0.000001           0.000         0.001       0.000
    8      252.217 ||    0.000001           0.000         0.001       0.000
    9      364.556 ||    0.000067           0.002         0.065       0.012
   10      414.134 ||    0.000034           0.001         0.034       0.006
   11      414.134 ||    0.000034           0.001         0.034       0.006
   12      558.858 ||    0.003441           0.079         3.354       0.632
   13      887.798 ||    0.287815           6.640       280.576      52.875
   14      887.798 ||    0.287815           6.640       280.576      52.875
   15     1191.030 ||    0.237225           5.473       231.259      43.581
 ----------------------------------------------------------------------------

 Total times  cpu:      164.7s     wall:      147.4s
