============================== echo of input deck ==============================
ECHO

start molecule

#MEMORY
memory 3584 mb

#TITLE
title "CFCl4"

charge 0

#GEOMETRY
geometry units angstroms print xyz autosym
C          0.01249        0.78594        0.06926
Cl         1.79048        0.78594        0.06926
Cl        -0.58017        1.81550       -1.25361
F         -0.44802        1.27613        1.27601
Cl        -0.58017       -0.87448       -0.16093
end

BASIS "ao basis" SPHERICAL PRINT
#BASIS SET: (7s,4p,1d) -> [3s,2p,1d]
C    S
   1238.4016938              0.54568832082E-02
    186.29004992             0.40638409211E-01
     42.251176346            0.18025593888
     11.676557932            0.46315121755
      3.5930506482           0.44087173314
C    S
      0.40245147363          1.0000000
C    S
      0.13090182668          1.0000000
C    P
      9.4680970621           0.38387871728E-01
      2.0103545142           0.21117025112
      0.54771004707          0.51328172114
C    P
      0.15268613795          1.0000000
C    D
      0.8000000              1.0000000
#BASIS SET: (7s,4p,1d) -> [3s,2p,1d]
F    S
   2894.8325990             -0.53408255515E-02
    435.41939120            -0.39904258866E-01
     98.843328866           -0.17912768038
     27.485198001           -0.46758090825
      8.5405498171          -0.44653131020
F    S
      1.0654578038           1.0000000
F    S
      0.33247346748          1.0000000
F    P
     22.696633924           -0.45212874436E-01
      4.9872339257          -0.23754317067
      1.3491613954          -0.51287353587
F    P
      0.34829881977          1.0000000
F    D
      1.4000000              1.0000000
#BASIS SET: (10s,7p,1d) -> [4s,3p,1d]
Cl    S
  10449.8275660              0.19708362484E-02
   1571.7365221              0.14754727977E-01
    357.12065523             0.66679112875E-01
    100.25185935             0.17228924084
     30.812727554            0.15883786100
Cl    S
     51.923789434           -0.10009298909
      5.7045760975           0.60841752753
      2.3508376809           0.54352153355
Cl    S
      0.44605124672          1.0000000
Cl    S
      0.16848856190          1.0000000
Cl    P
    307.66790569            -0.87801484118E-02
     72.102015515           -0.63563355471E-01
     22.532680262           -0.24016428276
      7.8991765444          -0.47798866557
      2.8767268321          -0.38515850005
Cl    P
      0.77459363955          1.0000000
Cl    P
      0.21037699698          1.0000000
Cl    D
      0.6500000              1.0000000
END

#DFT
dft
  grid medium
  convergence energy 1e-07
  mult 1
  iterations 30
  xc m06-hf
end

#OPT
driver
  default
  maxiter 100
end

set driver:linopt 0

#TASK
task dft optimize
task dft freq numerical

================================================================================

         Total DFT energy =    -1517.897637812988
@ Step       Energy      Delta E   Gmax     Grms     Xrms     Xmax   Walltime
@ ---- ---------------- -------- -------- -------- -------- -------- --------
@    0   -1517.89763781  0.0D+00  0.04349  0.01529  0.00000  0.00000      5.9
         Total DFT energy =    -1517.900673967371
@    1   -1517.90067397 -3.0D-03  0.00729  0.00240  0.03107  0.09755     11.1
         Total DFT energy =    -1517.900735254643
@    2   -1517.90073525 -6.1D-05  0.00132  0.00043  0.00530  0.01787     15.6
         Total DFT energy =    -1517.900737186921
@    3   -1517.90073719 -1.9D-06  0.00004  0.00001  0.00074  0.00255     19.5
         Total DFT energy =    -1517.900737191572
@    4   -1517.90073719 -4.7D-09  0.00000  0.00000  0.00004  0.00011     22.8
@    4   -1517.90073719 -4.7D-09  0.00000  0.00000  0.00004  0.00011     22.8

 Output coordinates in angstroms (scale by  1.889725989 to convert to a.u.)

  No.       Tag          Charge          X              Y              Z
 ---- ---------------- ---------- -------------- -------------- --------------
    1 C                    6.0000     0.00000000     0.00000000     0.26166990
    2 Cl                  17.0000    -0.11496029    -1.66509310    -0.30051665
    3 Cl                  17.0000     1.49949307     0.73298802    -0.30051665
    4 F                    9.0000     0.00000000     0.00000000     1.59129973
    5 Cl                  17.0000    -1.38453278     0.93210508    -0.30051665

         Total DFT energy =    -1517.900737191687

                       DFT Final Molecular Orbital Analysis
                       ------------------------------------

 Vector    1  Occ=2.000000D+00  E=-1.039898D+02  Symmetry=e+

 Vector    3  Occ=2.000000D+00  E=-1.039898D+02  Symmetry=a

 Vector    4  Occ=2.000000D+00  E=-2.596263D+01  Symmetry=a

 Vector    5  Occ=2.000000D+00  E=-1.124239D+01  Symmetry=a

 Vector    6  Occ=2.000000D+00  E=-1.015642D+01  Symmetry=e+

 Vector    7  Occ=2.000000D+00  E=-1.015642D+01  Symmetry=e+

 Vector    8  Occ=2.000000D+00  E=-1.015633D+01  Symmetry=a

 Vector    9  Occ=2.000000D+00  E=-7.915181D+00  Symmetry=e+

 Vector   10  Occ=2.000000D+00  E=-7.915181D+00  Symmetry=e+

 Vector   11  Occ=2.000000D+00  E=-7.915147D+00  Symmetry=a

 Vector   12  Occ=2.000000D+00  E=-7.912786D+00  Symmetry=e+

 Vector   13  Occ=2.000000D+00  E=-7.912786D+00  Symmetry=e+

 Vector   14  Occ=2.000000D+00  E=-7.912777D+00  Symmetry=a

 Vector   15  Occ=2.000000D+00  E=-7.912757D+00  Symmetry=a

 Vector   16  Occ=2.000000D+00  E=-7.912740D+00  Symmetry=e+

 Vector   17  Occ=2.000000D+00  E=-7.912740D+00  Symmetry=e+

 Vector   18  Occ=2.000000D+00  E=-1.530938D+00  Symmetry=a

 Vector   19  Occ=2.000000D+00  E=-1.169095D+00  Symmetry=a

 Vector   20  Occ=2.000000D+00  E=-1.069961D+00  Symmetry=e+

 Vector   21  Occ=2.000000D+00  E=-1.069961D+00  Symmetry=e+

 Vector   22  Occ=2.000000D+00  E=-8.618453D-01  Symmetry=a

 Vector   23  Occ=2.000000D+00  E=-7.523190D-01  Symmetry=e+

 Vector   24  Occ=2.000000D+00  E=-7.523190D-01  Symmetry=e+

 Vector   25  Occ=2.000000D+00  E=-7.278707D-01  Symmetry=a

 Vector   26  Occ=2.000000D+00  E=-5.992351D-01  Symmetry=e+

 Vector   27  Occ=2.000000D+00  E=-5.992351D-01  Symmetry=e+

 Vector   28  Occ=2.000000D+00  E=-5.284558D-01  Symmetry=a

 Vector   29  Occ=2.000000D+00  E=-5.121835D-01  Symmetry=e+

 Vector   30  Occ=2.000000D+00  E=-5.121835D-01  Symmetry=e+

 Vector   31  Occ=2.000000D+00  E=-4.809109D-01  Symmetry=e+

 Vector   32  Occ=2.000000D+00  E=-4.809109D-01  Symmetry=e+

 Vector   33  Occ=2.000000D+00  E=-4.678647D-01  Symmetry=a

 Vector   34  Occ=0.000000D+00  E= 9.264873D-02  Symmetry=a

 Vector   35  Occ=0.000000D+00  E= 1.391445D-01  Symmetry=e+

 Vector   36  Occ=0.000000D+00  E= 1.391445D-01  Symmetry=e+

 Vector   37  Occ=0.000000D+00  E= 2.224382D-01  Symmetry=a

 Vector   38  Occ=0.000000D+00  E= 4.221320D-01  Symmetry=a

 Vector   39  Occ=0.000000D+00  E= 4.962886D-01  Symmetry=e+

 Vector   40  Occ=0.000000D+00  E= 4.962886D-01  Symmetry=e+

 Vector   41  Occ=0.000000D+00  E= 5.716240D-01  Symmetry=a

 Vector   42  Occ=0.000000D+00  E= 6.137209D-01  Symmetry=e+

 Vector   43  Occ=0.000000D+00  E= 6.137209D-01  Symmetry=e+

 Vector   44  Occ=0.000000D+00  E= 7.151469D-01  Symmetry=a

 Vector   45  Occ=0.000000D+00  E= 7.905982D-01  Symmetry=e+

 Vector   46  Occ=0.000000D+00  E= 7.905982D-01  Symmetry=e+

 Vector   47  Occ=0.000000D+00  E= 8.190385D-01  Symmetry=e+

 Vector   48  Occ=0.000000D+00  E= 8.190385D-01  Symmetry=e+

 Vector   49  Occ=0.000000D+00  E= 8.392761D-01  Symmetry=a

 Vector   50  Occ=0.000000D+00  E= 8.550702D-01  Symmetry=a

 Vector   51  Occ=0.000000D+00  E= 8.701489D-01  Symmetry=e+

 Vector   52  Occ=0.000000D+00  E= 8.701489D-01  Symmetry=e+

 Vector   53  Occ=0.000000D+00  E= 8.821170D-01  Symmetry=a

 Vector   54  Occ=0.000000D+00  E= 8.877740D-01  Symmetry=e+

 Vector   55  Occ=0.000000D+00  E= 8.877740D-01  Symmetry=e+

 Vector   56  Occ=0.000000D+00  E= 8.977281D-01  Symmetry=a

 Vector   57  Occ=0.000000D+00  E= 9.180481D-01  Symmetry=a

 Vector   58  Occ=0.000000D+00  E= 9.182994D-01  Symmetry=e+

 Vector   59  Occ=0.000000D+00  E= 9.182994D-01  Symmetry=e+

 Vector   60  Occ=0.000000D+00  E= 9.489883D-01  Symmetry=e+

 Vector   61  Occ=0.000000D+00  E= 9.489883D-01  Symmetry=e+

 Vector   62  Occ=0.000000D+00  E= 1.096850D+00  Symmetry=a

 Vector   63  Occ=0.000000D+00  E= 1.151116D+00  Symmetry=a

 Vector   64  Occ=0.000000D+00  E= 1.177643D+00  Symmetry=e+

 Vector   65  Occ=0.000000D+00  E= 1.177643D+00  Symmetry=e+

 Vector   66  Occ=0.000000D+00  E= 1.330046D+00  Symmetry=e+

 Vector   67  Occ=0.000000D+00  E= 1.330046D+00  Symmetry=e+

 Vector   68  Occ=0.000000D+00  E= 1.345105D+00  Symmetry=a

 Vector   69  Occ=0.000000D+00  E= 1.433725D+00  Symmetry=a

 Vector   70  Occ=0.000000D+00  E= 1.512101D+00  Symmetry=e+

 Vector   71  Occ=0.000000D+00  E= 1.512101D+00  Symmetry=e+

 Vector   72  Occ=0.000000D+00  E= 1.793425D+00  Symmetry=e+

 Vector   73  Occ=0.000000D+00  E= 1.793425D+00  Symmetry=e+

 Vector   74  Occ=0.000000D+00  E= 1.941916D+00  Symmetry=a

 Vector   75  Occ=0.000000D+00  E= 2.101827D+00  Symmetry=e+

 Vector   76  Occ=0.000000D+00  E= 2.101827D+00  Symmetry=e+

 Vector   77  Occ=0.000000D+00  E= 2.166036D+00  Symmetry=a

 Vector   78  Occ=0.000000D+00  E= 3.181113D+00  Symmetry=e+

 Vector   79  Occ=0.000000D+00  E= 3.181113D+00  Symmetry=e+

 Vector   80  Occ=0.000000D+00  E= 3.424412D+00  Symmetry=e+

 Vector   81  Occ=0.000000D+00  E= 3.424412D+00  Symmetry=e+

 Vector   82  Occ=0.000000D+00  E= 3.847374D+00  Symmetry=a

     Multipole analysis of the density
     ---------------------------------

     L   x y z        total         alpha         beta         nuclear
     -   - - -        -----         -----         ----         -------
     0   0 0 0     -0.000000    -33.000000    -33.000000     66.000000

     1   1 0 0      0.000000      0.000000      0.000000      0.000000
     1   0 1 0      0.000000      0.000000      0.000000     -0.000000
     1   0 0 1     -0.198038     -0.633214     -0.633214      1.068391

     2   2 0 0    -34.565957   -144.121198   -144.121198    253.676438
     2   1 1 0      0.000000      0.000000      0.000000     -0.000000
     2   1 0 1      0.000000      0.000000      0.000000      0.000000
     2   0 2 0    -34.565957   -144.121198   -144.121198    253.676438
     2   0 1 1      0.000000      0.000000      0.000000      0.000000

         Total DFT energy =    -1517.900679007648
         Total DFT energy =    -1517.900675018873
         Total DFT energy =    -1517.900678232962
         Total DFT energy =    -1517.900675960871
         Total DFT energy =    -1517.900668174369
         Total DFT energy =    -1517.900671395298
         Total DFT energy =    -1517.900690345606
         Total DFT energy =    -1517.900690193264
         Total DFT energy =    -1517.900690123780
         Total DFT energy =    -1517.900690410647
         Total DFT energy =    -1517.900673321955
         Total DFT energy =    -1517.900669278568
         Total DFT energy =    -1517.900683662599
         Total DFT energy =    -1517.900689509740
         Total DFT energy =    -1517.900692911951
         Total DFT energy =    -1517.900687278109
         Total DFT energy =    -1517.900691252525
         Total DFT energy =    -1517.900690617491
 Zero-Point correction to Energy  =    7.609 kcal/mol  (  0.012125 au)
 Thermal correction to Energy     =   10.772 kcal/mol  (  0.017166 au)
 Thermal correction to Enthalpy   =   11.364 kcal/mol  (  0.018109 au)
 Total Entropy                    =   73.435 cal/mol-K
   - Translational                =   40.614 cal/mol-K (mol. weight = 135.9050)
   - Rotational                   =   25.617 cal/mol-K (symmetry #  =        3)
   - Vibrational                  =    7.203 cal/mol-K
   - Translational                  =    2.979 cal/mol-K
   - Rotational                     =    2.979 cal/mol-K
   - Vibrational                    =   10.200 cal/mol-K
 P.Frequency       -0.00       -0.00       -0.00       -0.00        0.00        0.00
 P.Frequency      251.82      251.82      360.93      412.56      412.56      559.48
 P.Frequency      921.17      921.17     1233.50

 Normal Eigenvalue ||           Projected Infra Red Intensities
  Mode   [cm**-1]  || [atomic units] [(debye/angs)**2] [(KM/mol)] [arbitrary]
 ------ ---------- || -------------- ----------------- ---------- -----------
    1       -0.000 ||    0.000038           0.001         0.037       0.009
    2       -0.000 ||    0.000015           0.000         0.015       0.003
    3       -0.000 ||    0.000000           0.000         0.000       0.000
    4       -0.000 ||    0.000000           0.000         0.000       0.000
    5        0.000 ||    0.000019           0.000         0.019       0.004
    6        0.000 ||    0.000038           0.001         0.037       0.009
    7      251.820 ||    0.000012           0.000         0.011       0.003
    8      251.820 ||    0.000012           0.000         0.011       0.003
    9      360.928 ||    0.000081           0.002         0.079       0.019
   10      412.556 ||    0.000747           0.017         0.728       0.170
   11      412.556 ||    0.000747           0.017         0.728       0.170
   12      559.485 ||    0.001574           0.036         1.534       0.359
   13      921.168 ||    0.224492           5.179       218.846      51.177
   14      921.168 ||    0.224492           5.179       218.846      51.177
   15     1233.503 ||    0.205724           4.746       200.550      46.898
 ----------------------------------------------------------------------------

 Total times  cpu:      231.6s     wall:      195.9s
