============================== echo of input deck ==============================
ECHO

start molecule

#MEMORY
memory 3584 mb

#TITLE
title "CFCl4"

charge 0

#GEOMETRY
geometry units angstroms print xyz autosym
C          0.01249        0.78594        0.06926
Cl         1.79048        0.78594        0.06926
Cl        -0.58017        1.81550       -1.25361
F         -0.44802        1.27613        1.27601
Cl        -0.58017       -0.87448       -0.16093
end

BASIS "ao basis" SPHERICAL PRINT
#BASIS SET: (7s,4p,1d) -> [3s,2p,1d]
C    S
   1238.4016938              0.54568832082E-02
    186.29004992             0.40638409211E-01
     42.251176346            0.18025593888
     11.676557932            0.46315121755
      3.5930506482           0.44087173314
C    S
      0.40245147363          1.0000000
C    S
      0.13090182668          1.0000000
C    P
      9.4680970621           0.38387871728E-01
      2.0103545142           0.21117025112
      0.54771004707          0.51328172114
C    P
      0.15268613795          1.0000000
C    D
      0.8000000              1.0000000
#BASIS SET: (7s,4p,1d) -> [3s,2p,1d]
F    S
   2894.8325990             -0.53408255515E-02
    435.41939120            -0.39904258866E-01
     98.843328866           -0.17912768038
     27.485198001           -0.46758090825
      8.5405498171          -0.44653131020
F    S
      1.0654578038           1.0000000
F    S
      0.33247346748          1.0000000
F    P
     22.696633924           -0.45212874436E-01
      4.9872339257          -0.23754317067
      1.3491613954          -0.51287353587
F    P
      0.34829881977          1.0000000
F    D
      1.4000000              1.0000000
#BASIS SET: (10s,7p,1d) -> [4s,3p,1d]
Cl    S
  10449.8275660              0.19708362484E-02
   1571.7365221              0.14754727977E-01
    357.12065523             0.66679112875E-01
    100.25185935             0.17228924084
     30.812727554            0.15883786100
Cl    S
     51.923789434           -0.10009298909
      5.7045760975           0.60841752753
      2.3508376809           0.54352153355
Cl    S
      0.44605124672          1.0000000
Cl    S
      0.16848856190          1.0000000
Cl    P
    307.66790569            -0.87801484118E-02
     72.102015515           -0.63563355471E-01
     22.532680262           -0.24016428276
      7.8991765444          -0.47798866557
      2.8767268321          -0.38515850005
Cl    P
      0.77459363955          1.0000000
Cl    P
      0.21037699698          1.0000000
Cl    D
      0.6500000              1.0000000
END

#DFT
dft
  grid medium
  convergence energy 1e-07
  mult 1
  iterations 30
  xc mpw1b95
end

#OPT
driver
  default
  maxiter 100
end

set driver:linopt 0

#TASK
task dft optimize
task dft freq numerical

================================================================================

         Total DFT energy =    -1518.130235486158
@ Step       Energy      Delta E   Gmax     Grms     Xrms     Xmax   Walltime
@ ---- ---------------- -------- -------- -------- -------- -------- --------
@    0   -1518.13023549  0.0D+00  0.04554  0.01605  0.00000  0.00000      5.4
         Total DFT energy =    -1518.133707798605
@    1   -1518.13370780 -3.5D-03  0.00974  0.00320  0.03307  0.10418     10.3
         Total DFT energy =    -1518.133820566581
@    2   -1518.13382057 -1.1D-04  0.00196  0.00064  0.00662  0.02272     14.8
         Total DFT energy =    -1518.133825075223
@    3   -1518.13382508 -4.5D-06  0.00008  0.00002  0.00106  0.00359     19.0
         Total DFT energy =    -1518.133825082814
@    4   -1518.13382508 -7.6D-09  0.00001  0.00000  0.00004  0.00011     22.3
@    4   -1518.13382508 -7.6D-09  0.00001  0.00000  0.00004  0.00011     22.3

 Output coordinates in angstroms (scale by  1.889725989 to convert to a.u.)

  No.       Tag          Charge          X              Y              Z
 ---- ---------------- ---------- -------------- -------------- --------------
    1 C                    6.0000     0.00000000     0.00000000     0.26268764
    2 Cl                  17.0000    -0.11496601    -1.66517602    -0.29901165
    3 Cl                  17.0000     1.49956775     0.73302452    -0.29901165
    4 F                    9.0000     0.00000000     0.00000000     1.58576699
    5 Cl                  17.0000    -1.38460173     0.93215150    -0.29901165

         Total DFT energy =    -1518.133825082703

                       DFT Final Molecular Orbital Analysis
                       ------------------------------------

 Vector    1  Occ=2.000000D+00  E=-1.019934D+02  Symmetry=e+

 Vector    3  Occ=2.000000D+00  E=-1.019933D+02  Symmetry=a

 Vector    4  Occ=2.000000D+00  E=-2.496813D+01  Symmetry=a

 Vector    5  Occ=2.000000D+00  E=-1.058214D+01  Symmetry=a

 Vector    6  Occ=2.000000D+00  E=-9.636629D+00  Symmetry=e+

 Vector    7  Occ=2.000000D+00  E=-9.636629D+00  Symmetry=e+

 Vector    8  Occ=2.000000D+00  E=-9.636592D+00  Symmetry=a

 Vector    9  Occ=2.000000D+00  E=-7.367381D+00  Symmetry=e+

 Vector   10  Occ=2.000000D+00  E=-7.367381D+00  Symmetry=e+

 Vector   11  Occ=2.000000D+00  E=-7.367358D+00  Symmetry=a

 Vector   12  Occ=2.000000D+00  E=-7.356944D+00  Symmetry=e+

 Vector   13  Occ=2.000000D+00  E=-7.356944D+00  Symmetry=e+

 Vector   14  Occ=2.000000D+00  E=-7.356939D+00  Symmetry=a

 Vector   15  Occ=2.000000D+00  E=-7.356857D+00  Symmetry=a

 Vector   16  Occ=2.000000D+00  E=-7.356839D+00  Symmetry=e+

 Vector   17  Occ=2.000000D+00  E=-7.356839D+00  Symmetry=e+

 Vector   18  Occ=2.000000D+00  E=-1.328054D+00  Symmetry=a

 Vector   19  Occ=2.000000D+00  E=-9.828391D-01  Symmetry=a

 Vector   20  Occ=2.000000D+00  E=-8.922730D-01  Symmetry=e+

 Vector   21  Occ=2.000000D+00  E=-8.922730D-01  Symmetry=e+

 Vector   22  Occ=2.000000D+00  E=-6.952921D-01  Symmetry=a

 Vector   23  Occ=2.000000D+00  E=-5.875435D-01  Symmetry=a

 Vector   24  Occ=2.000000D+00  E=-5.806892D-01  Symmetry=e+

 Vector   25  Occ=2.000000D+00  E=-5.806892D-01  Symmetry=e+

 Vector   26  Occ=2.000000D+00  E=-4.578180D-01  Symmetry=e+

 Vector   27  Occ=2.000000D+00  E=-4.578180D-01  Symmetry=e+

 Vector   28  Occ=2.000000D+00  E=-3.944833D-01  Symmetry=a

 Vector   29  Occ=2.000000D+00  E=-3.824383D-01  Symmetry=e+

 Vector   30  Occ=2.000000D+00  E=-3.824383D-01  Symmetry=e+

 Vector   31  Occ=2.000000D+00  E=-3.513464D-01  Symmetry=e+

 Vector   32  Occ=2.000000D+00  E=-3.513464D-01  Symmetry=e+

 Vector   33  Occ=2.000000D+00  E=-3.367251D-01  Symmetry=a

 Vector   34  Occ=0.000000D+00  E=-8.028596D-03  Symmetry=a

 Vector   35  Occ=0.000000D+00  E= 4.356549D-02  Symmetry=e+

 Vector   36  Occ=0.000000D+00  E= 4.356549D-02  Symmetry=e+

 Vector   37  Occ=0.000000D+00  E= 1.303215D-01  Symmetry=a

 Vector   38  Occ=0.000000D+00  E= 3.664030D-01  Symmetry=a

 Vector   39  Occ=0.000000D+00  E= 4.196700D-01  Symmetry=e+

 Vector   40  Occ=0.000000D+00  E= 4.196700D-01  Symmetry=e+

 Vector   41  Occ=0.000000D+00  E= 4.761585D-01  Symmetry=a

 Vector   42  Occ=0.000000D+00  E= 5.474937D-01  Symmetry=e+

 Vector   43  Occ=0.000000D+00  E= 5.474937D-01  Symmetry=e+

 Vector   44  Occ=0.000000D+00  E= 6.446081D-01  Symmetry=a

 Vector   45  Occ=0.000000D+00  E= 6.642091D-01  Symmetry=e+

 Vector   46  Occ=0.000000D+00  E= 6.642091D-01  Symmetry=e+

 Vector   47  Occ=0.000000D+00  E= 7.276771D-01  Symmetry=a

 Vector   48  Occ=0.000000D+00  E= 7.344766D-01  Symmetry=e+

 Vector   49  Occ=0.000000D+00  E= 7.344766D-01  Symmetry=e+

 Vector   50  Occ=0.000000D+00  E= 7.549988D-01  Symmetry=a

 Vector   51  Occ=0.000000D+00  E= 7.586797D-01  Symmetry=e+

 Vector   52  Occ=0.000000D+00  E= 7.586797D-01  Symmetry=e+

 Vector   53  Occ=0.000000D+00  E= 7.685320D-01  Symmetry=a

 Vector   54  Occ=0.000000D+00  E= 7.826136D-01  Symmetry=e+

 Vector   55  Occ=0.000000D+00  E= 7.826136D-01  Symmetry=e+

 Vector   56  Occ=0.000000D+00  E= 7.978815D-01  Symmetry=a

 Vector   57  Occ=0.000000D+00  E= 8.366405D-01  Symmetry=e+

 Vector   58  Occ=0.000000D+00  E= 8.366405D-01  Symmetry=e+

 Vector   59  Occ=0.000000D+00  E= 8.387346D-01  Symmetry=a

 Vector   60  Occ=0.000000D+00  E= 8.786640D-01  Symmetry=e+

 Vector   61  Occ=0.000000D+00  E= 8.786640D-01  Symmetry=e+

 Vector   62  Occ=0.000000D+00  E= 1.047408D+00  Symmetry=a

 Vector   63  Occ=0.000000D+00  E= 1.052816D+00  Symmetry=a

 Vector   64  Occ=0.000000D+00  E= 1.099198D+00  Symmetry=e+

 Vector   65  Occ=0.000000D+00  E= 1.099198D+00  Symmetry=e+

 Vector   66  Occ=0.000000D+00  E= 1.257244D+00  Symmetry=a

 Vector   67  Occ=0.000000D+00  E= 1.268812D+00  Symmetry=e+

 Vector   68  Occ=0.000000D+00  E= 1.268812D+00  Symmetry=e+

 Vector   69  Occ=0.000000D+00  E= 1.367913D+00  Symmetry=a

 Vector   70  Occ=0.000000D+00  E= 1.424873D+00  Symmetry=e+

 Vector   71  Occ=0.000000D+00  E= 1.424873D+00  Symmetry=e+

 Vector   72  Occ=0.000000D+00  E= 1.689696D+00  Symmetry=e+

 Vector   73  Occ=0.000000D+00  E= 1.689696D+00  Symmetry=e+

 Vector   74  Occ=0.000000D+00  E= 1.893569D+00  Symmetry=a

 Vector   75  Occ=0.000000D+00  E= 2.067975D+00  Symmetry=e+

 Vector   76  Occ=0.000000D+00  E= 2.067975D+00  Symmetry=e+

 Vector   77  Occ=0.000000D+00  E= 2.091273D+00  Symmetry=a

 Vector   78  Occ=0.000000D+00  E= 3.060019D+00  Symmetry=e+

 Vector   79  Occ=0.000000D+00  E= 3.060019D+00  Symmetry=e+

 Vector   80  Occ=0.000000D+00  E= 3.313478D+00  Symmetry=e+

 Vector   81  Occ=0.000000D+00  E= 3.313478D+00  Symmetry=e+

 Vector   82  Occ=0.000000D+00  E= 3.780034D+00  Symmetry=a

     Multipole analysis of the density
     ---------------------------------

     L   x y z        total         alpha         beta         nuclear
     -   - - -        -----         -----         ----         -------
     0   0 0 0     -0.000000    -33.000000    -33.000000     66.000000

     1   1 0 0      0.000000      0.000000      0.000000      0.000000
     1   0 1 0      0.000000      0.000000      0.000000     -0.000000
     1   0 0 1     -0.136485     -0.633681     -0.633681      1.130878

     2   2 0 0    -34.346906   -144.024306   -144.024306    253.701706
     2   1 1 0     -0.000000     -0.000000     -0.000000      0.000000
     2   1 0 1     -0.000000     -0.000000     -0.000000     -0.000000
     2   0 2 0    -34.346906   -144.024306   -144.024306    253.701706
     2   0 1 1     -0.000000     -0.000000     -0.000000      0.000000

         Total DFT energy =    -1518.133824682081
         Total DFT energy =    -1518.133825250938
         Total DFT energy =    -1518.133824882682
         Total DFT energy =    -1518.133824942430
         Total DFT energy =    -1518.133816792104
         Total DFT energy =    -1518.133818213970
         Total DFT energy =    -1518.133836318897
         Total DFT energy =    -1518.133836395085
         Total DFT energy =    -1518.133836314755
         Total DFT energy =    -1518.133836383069
         Total DFT energy =    -1518.133818800025
         Total DFT energy =    -1518.133818106099
         Total DFT energy =    -1518.133832501267
         Total DFT energy =    -1518.133832518367
         Total DFT energy =    -1518.133835559297
         Total DFT energy =    -1518.133835561930
         Total DFT energy =    -1518.133837195840
         Total DFT energy =    -1518.133836957359
 Zero-Point correction to Energy  =    7.344 kcal/mol  (  0.011703 au)
 Thermal correction to Energy     =   10.541 kcal/mol  (  0.016798 au)
 Thermal correction to Enthalpy   =   11.133 kcal/mol  (  0.017742 au)
 Total Entropy                    =   73.622 cal/mol-K
   - Translational                =   40.614 cal/mol-K (mol. weight = 135.9050)
   - Rotational                   =   25.613 cal/mol-K (symmetry #  =        3)
   - Vibrational                  =    7.395 cal/mol-K
   - Translational                  =    2.979 cal/mol-K
   - Rotational                     =    2.979 cal/mol-K
   - Vibrational                    =   10.438 cal/mol-K
 P.Frequency       -0.00       -0.00       -0.00        0.00        0.00        0.00
 P.Frequency      247.03      247.03      357.96      408.94      408.94      553.22
 P.Frequency      864.34      864.34     1187.85

 Normal Eigenvalue ||           Projected Infra Red Intensities
  Mode   [cm**-1]  || [atomic units] [(debye/angs)**2] [(KM/mol)] [arbitrary]
 ------ ---------- || -------------- ----------------- ---------- -----------
    1       -0.000 ||    0.000020           0.000         0.019       0.004
    2       -0.000 ||    0.000019           0.000         0.019       0.004
    3       -0.000 ||    0.000000           0.000         0.000       0.000
    4        0.000 ||    0.000009           0.000         0.009       0.002
    5        0.000 ||    0.000010           0.000         0.009       0.002
    6        0.000 ||    0.000000           0.000         0.000       0.000
    7      247.030 ||    0.000004           0.000         0.004       0.001
    8      247.030 ||    0.000004           0.000         0.004       0.001
    9      357.960 ||    0.000064           0.001         0.062       0.012
   10      408.936 ||    0.000002           0.000         0.002       0.000
   11      408.936 ||    0.000002           0.000         0.002       0.000
   12      553.220 ||    0.003972           0.092         3.873       0.729
   13      864.344 ||    0.288921           6.666       281.655      53.046
   14      864.344 ||    0.288921           6.666       281.655      53.046
   15     1187.853 ||    0.235039           5.423       229.128      43.153
 ----------------------------------------------------------------------------

 Total times  cpu:      222.9s     wall:      194.5s
