============================== echo of input deck ==============================
ECHO

start molecule

#MEMORY
memory 3584 mb

#TITLE
title "CFCl4"

charge 0

#GEOMETRY
geometry units angstroms print xyz autosym
C          0.01249        0.78594        0.06926
Cl         1.79048        0.78594        0.06926
Cl        -0.58017        1.81550       -1.25361
F         -0.44802        1.27613        1.27601
Cl        -0.58017       -0.87448       -0.16093
end

BASIS "ao basis" SPHERICAL PRINT
#BASIS SET: (7s,4p,1d) -> [3s,2p,1d]
C    S
   1238.4016938              0.54568832082E-02
    186.29004992             0.40638409211E-01
     42.251176346            0.18025593888
     11.676557932            0.46315121755
      3.5930506482           0.44087173314
C    S
      0.40245147363          1.0000000
C    S
      0.13090182668          1.0000000
C    P
      9.4680970621           0.38387871728E-01
      2.0103545142           0.21117025112
      0.54771004707          0.51328172114
C    P
      0.15268613795          1.0000000
C    D
      0.8000000              1.0000000
#BASIS SET: (7s,4p,1d) -> [3s,2p,1d]
F    S
   2894.8325990             -0.53408255515E-02
    435.41939120            -0.39904258866E-01
     98.843328866           -0.17912768038
     27.485198001           -0.46758090825
      8.5405498171          -0.44653131020
F    S
      1.0654578038           1.0000000
F    S
      0.33247346748          1.0000000
F    P
     22.696633924           -0.45212874436E-01
      4.9872339257          -0.23754317067
      1.3491613954          -0.51287353587
F    P
      0.34829881977          1.0000000
F    D
      1.4000000              1.0000000
#BASIS SET: (10s,7p,1d) -> [4s,3p,1d]
Cl    S
  10449.8275660              0.19708362484E-02
   1571.7365221              0.14754727977E-01
    357.12065523             0.66679112875E-01
    100.25185935             0.17228924084
     30.812727554            0.15883786100
Cl    S
     51.923789434           -0.10009298909
      5.7045760975           0.60841752753
      2.3508376809           0.54352153355
Cl    S
      0.44605124672          1.0000000
Cl    S
      0.16848856190          1.0000000
Cl    P
    307.66790569            -0.87801484118E-02
     72.102015515           -0.63563355471E-01
     22.532680262           -0.24016428276
      7.8991765444          -0.47798866557
      2.8767268321          -0.38515850005
Cl    P
      0.77459363955          1.0000000
Cl    P
      0.21037699698          1.0000000
Cl    D
      0.6500000              1.0000000
END

#DFT
dft
  grid medium
  convergence energy 1e-07
  mult 1
  iterations 30
  xc pbe0
end

#OPT
driver
  default
  maxiter 100
end

set driver:linopt 0

#TASK
task dft optimize
task dft freq numerical

================================================================================

         Total DFT energy =    -1517.392987203587
@ Step       Energy      Delta E   Gmax     Grms     Xrms     Xmax   Walltime
@ ---- ---------------- -------- -------- -------- -------- -------- --------
@    0   -1517.39298720  0.0D+00  0.04184  0.01437  0.00000  0.00000      4.7
         Total DFT energy =    -1517.395885411462
@    1   -1517.39588541 -2.9D-03  0.00451  0.00147  0.03248  0.10509      8.9
         Total DFT energy =    -1517.395912718251
@    2   -1517.39591272 -2.7D-05  0.00088  0.00028  0.00408  0.01265     12.4
         Total DFT energy =    -1517.395913671390
@    3   -1517.39591367 -9.5D-07  0.00002  0.00001  0.00055  0.00185     15.5
         Total DFT energy =    -1517.395913688575
@    4   -1517.39591369 -1.7D-08  0.00000  0.00000  0.00001  0.00003     18.3
@    4   -1517.39591369 -1.7D-08  0.00000  0.00000  0.00001  0.00003     18.3

 Output coordinates in angstroms (scale by  1.889725989 to convert to a.u.)

  No.       Tag          Charge          X              Y              Z
 ---- ---------------- ---------- -------------- -------------- --------------
    1 C                    6.0000     0.00000000     0.00000000     0.26341917
    2 Cl                  17.0000    -0.11533943    -1.67058465    -0.30057320
    3 Cl                  17.0000     1.50443846     0.73540545    -0.30057320
    4 F                    9.0000    -0.00000000     0.00000000     1.58972014
    5 Cl                  17.0000    -1.38909903     0.93517920    -0.30057320

         Total DFT energy =    -1517.395913690932

                       DFT Final Molecular Orbital Analysis
                       ------------------------------------

 Vector    1  Occ=2.000000D+00  E=-1.017124D+02  Symmetry=e+

 Vector    3  Occ=2.000000D+00  E=-1.017124D+02  Symmetry=a

 Vector    4  Occ=2.000000D+00  E=-2.483569D+01  Symmetry=a

 Vector    5  Occ=2.000000D+00  E=-1.049141D+01  Symmetry=a

 Vector    6  Occ=2.000000D+00  E=-9.565811D+00  Symmetry=e+

 Vector    7  Occ=2.000000D+00  E=-9.565811D+00  Symmetry=e+

 Vector    8  Occ=2.000000D+00  E=-9.565773D+00  Symmetry=a

 Vector    9  Occ=2.000000D+00  E=-7.307639D+00  Symmetry=e+

 Vector   10  Occ=2.000000D+00  E=-7.307639D+00  Symmetry=e+

 Vector   11  Occ=2.000000D+00  E=-7.307616D+00  Symmetry=a

 Vector   12  Occ=2.000000D+00  E=-7.296681D+00  Symmetry=e+

 Vector   13  Occ=2.000000D+00  E=-7.296681D+00  Symmetry=e+

 Vector   14  Occ=2.000000D+00  E=-7.296675D+00  Symmetry=a

 Vector   15  Occ=2.000000D+00  E=-7.296591D+00  Symmetry=a

 Vector   16  Occ=2.000000D+00  E=-7.296573D+00  Symmetry=e+

 Vector   17  Occ=2.000000D+00  E=-7.296573D+00  Symmetry=e+

 Vector   18  Occ=2.000000D+00  E=-1.309917D+00  Symmetry=a

 Vector   19  Occ=2.000000D+00  E=-9.721675D-01  Symmetry=a

 Vector   20  Occ=2.000000D+00  E=-8.821316D-01  Symmetry=e+

 Vector   21  Occ=2.000000D+00  E=-8.821316D-01  Symmetry=e+

 Vector   22  Occ=2.000000D+00  E=-6.853902D-01  Symmetry=a

 Vector   23  Occ=2.000000D+00  E=-5.793928D-01  Symmetry=a

 Vector   24  Occ=2.000000D+00  E=-5.694002D-01  Symmetry=e+

 Vector   25  Occ=2.000000D+00  E=-5.694002D-01  Symmetry=e+

 Vector   26  Occ=2.000000D+00  E=-4.485077D-01  Symmetry=e+

 Vector   27  Occ=2.000000D+00  E=-4.485077D-01  Symmetry=e+

 Vector   28  Occ=2.000000D+00  E=-3.870315D-01  Symmetry=a

 Vector   29  Occ=2.000000D+00  E=-3.756124D-01  Symmetry=e+

 Vector   30  Occ=2.000000D+00  E=-3.756124D-01  Symmetry=e+

 Vector   31  Occ=2.000000D+00  E=-3.447576D-01  Symmetry=e+

 Vector   32  Occ=2.000000D+00  E=-3.447576D-01  Symmetry=e+

 Vector   33  Occ=2.000000D+00  E=-3.303801D-01  Symmetry=a

 Vector   34  Occ=0.000000D+00  E=-2.235452D-02  Symmetry=a

 Vector   35  Occ=0.000000D+00  E= 3.032966D-02  Symmetry=e+

 Vector   36  Occ=0.000000D+00  E= 3.032966D-02  Symmetry=e+

 Vector   37  Occ=0.000000D+00  E= 1.155852D-01  Symmetry=a

 Vector   38  Occ=0.000000D+00  E= 3.573997D-01  Symmetry=a

 Vector   39  Occ=0.000000D+00  E= 4.107144D-01  Symmetry=e+

 Vector   40  Occ=0.000000D+00  E= 4.107144D-01  Symmetry=e+

 Vector   41  Occ=0.000000D+00  E= 4.629928D-01  Symmetry=a

 Vector   42  Occ=0.000000D+00  E= 5.360990D-01  Symmetry=e+

 Vector   43  Occ=0.000000D+00  E= 5.360990D-01  Symmetry=e+

 Vector   44  Occ=0.000000D+00  E= 6.360284D-01  Symmetry=a

 Vector   45  Occ=0.000000D+00  E= 6.548598D-01  Symmetry=e+

 Vector   46  Occ=0.000000D+00  E= 6.548598D-01  Symmetry=e+

 Vector   47  Occ=0.000000D+00  E= 7.175023D-01  Symmetry=a

 Vector   48  Occ=0.000000D+00  E= 7.246166D-01  Symmetry=e+

 Vector   49  Occ=0.000000D+00  E= 7.246166D-01  Symmetry=e+

 Vector   50  Occ=0.000000D+00  E= 7.447381D-01  Symmetry=a

 Vector   51  Occ=0.000000D+00  E= 7.477110D-01  Symmetry=e+

 Vector   52  Occ=0.000000D+00  E= 7.477110D-01  Symmetry=e+

 Vector   53  Occ=0.000000D+00  E= 7.569835D-01  Symmetry=a

 Vector   54  Occ=0.000000D+00  E= 7.710260D-01  Symmetry=e+

 Vector   55  Occ=0.000000D+00  E= 7.710260D-01  Symmetry=e+

 Vector   56  Occ=0.000000D+00  E= 7.864825D-01  Symmetry=a

 Vector   57  Occ=0.000000D+00  E= 8.275630D-01  Symmetry=e+

 Vector   58  Occ=0.000000D+00  E= 8.275630D-01  Symmetry=e+

 Vector   59  Occ=0.000000D+00  E= 8.287919D-01  Symmetry=a

 Vector   60  Occ=0.000000D+00  E= 8.685148D-01  Symmetry=e+

 Vector   61  Occ=0.000000D+00  E= 8.685148D-01  Symmetry=e+

 Vector   62  Occ=0.000000D+00  E= 1.036288D+00  Symmetry=a

 Vector   63  Occ=0.000000D+00  E= 1.041147D+00  Symmetry=a

 Vector   64  Occ=0.000000D+00  E= 1.088791D+00  Symmetry=e+

 Vector   65  Occ=0.000000D+00  E= 1.088791D+00  Symmetry=e+

 Vector   66  Occ=0.000000D+00  E= 1.248534D+00  Symmetry=a

 Vector   67  Occ=0.000000D+00  E= 1.259060D+00  Symmetry=e+

 Vector   68  Occ=0.000000D+00  E= 1.259060D+00  Symmetry=e+

 Vector   69  Occ=0.000000D+00  E= 1.358700D+00  Symmetry=a

 Vector   70  Occ=0.000000D+00  E= 1.410638D+00  Symmetry=e+

 Vector   71  Occ=0.000000D+00  E= 1.410638D+00  Symmetry=e+

 Vector   72  Occ=0.000000D+00  E= 1.689922D+00  Symmetry=e+

 Vector   73  Occ=0.000000D+00  E= 1.689922D+00  Symmetry=e+

 Vector   74  Occ=0.000000D+00  E= 1.883316D+00  Symmetry=a

 Vector   75  Occ=0.000000D+00  E= 2.076825D+00  Symmetry=e+

 Vector   76  Occ=0.000000D+00  E= 2.076825D+00  Symmetry=e+

 Vector   77  Occ=0.000000D+00  E= 2.086942D+00  Symmetry=a

 Vector   78  Occ=0.000000D+00  E= 3.036332D+00  Symmetry=e+

 Vector   79  Occ=0.000000D+00  E= 3.036332D+00  Symmetry=e+

 Vector   80  Occ=0.000000D+00  E= 3.293137D+00  Symmetry=e+

 Vector   81  Occ=0.000000D+00  E= 3.293137D+00  Symmetry=e+

 Vector   82  Occ=0.000000D+00  E= 3.763884D+00  Symmetry=a

     Multipole analysis of the density
     ---------------------------------

     L   x y z        total         alpha         beta         nuclear
     -   - - -        -----         -----         ----         -------
     0   0 0 0     -0.000000    -33.000000    -33.000000     66.000000

     1   1 0 0      0.000000      0.000000      0.000000      0.000000
     1   0 1 0     -0.000000      0.000000      0.000000     -0.000000
     1   0 0 1     -0.118111     -0.587010     -0.587010      1.055909

     2   2 0 0    -34.505323   -144.928897   -144.928897    255.352470
     2   1 1 0     -0.000000     -0.000000     -0.000000      0.000000
     2   1 0 1      0.000000      0.000000      0.000000      0.000000
     2   0 2 0    -34.505323   -144.928897   -144.928897    255.352470
     2   0 1 1      0.000000      0.000000      0.000000      0.000000

         Total DFT energy =    -1517.395900195742
         Total DFT energy =    -1517.395900306966
         Total DFT energy =    -1517.395900280736
         Total DFT energy =    -1517.395900215648
         Total DFT energy =    -1517.395892640893
         Total DFT energy =    -1517.395893335151
         Total DFT energy =    -1517.395911504898
         Total DFT energy =    -1517.395911506318
         Total DFT energy =    -1517.395911495674
         Total DFT energy =    -1517.395911497439
         Total DFT energy =    -1517.395894368594
         Total DFT energy =    -1517.395893699668
         Total DFT energy =    -1517.395907738281
         Total DFT energy =    -1517.395907793479
         Total DFT energy =    -1517.395910762767
         Total DFT energy =    -1517.395910760918
         Total DFT energy =    -1517.395912253690
         Total DFT energy =    -1517.395912242039
 Zero-Point correction to Energy  =    7.310 kcal/mol  (  0.011649 au)
 Thermal correction to Energy     =   10.510 kcal/mol  (  0.016749 au)
 Thermal correction to Enthalpy   =   11.102 kcal/mol  (  0.017692 au)
 Total Entropy                    =   73.652 cal/mol-K
   - Translational                =   40.614 cal/mol-K (mol. weight = 135.9050)
   - Rotational                   =   25.632 cal/mol-K (symmetry #  =        3)
   - Vibrational                  =    7.406 cal/mol-K
   - Translational                  =    2.979 cal/mol-K
   - Rotational                     =    2.979 cal/mol-K
   - Vibrational                    =   10.467 cal/mol-K
 P.Frequency       -0.00       -0.00       -0.00       -0.00       -0.00       -0.00
 P.Frequency      247.53      247.53      358.30      408.07      408.07      550.27
 P.Frequency      859.67      859.67     1176.83

 Normal Eigenvalue ||           Projected Infra Red Intensities
  Mode   [cm**-1]  || [atomic units] [(debye/angs)**2] [(KM/mol)] [arbitrary]
 ------ ---------- || -------------- ----------------- ---------- -----------
    1       -0.000 ||    0.000000           0.000         0.000       0.000
    2       -0.000 ||    0.000015           0.000         0.014       0.003
    3       -0.000 ||    0.000007           0.000         0.007       0.001
    4       -0.000 ||    0.000007           0.000         0.007       0.001
    5       -0.000 ||    0.000015           0.000         0.014       0.003
    6       -0.000 ||    0.000000           0.000         0.000       0.000
    7      247.532 ||    0.000002           0.000         0.002       0.000
    8      247.532 ||    0.000002           0.000         0.002       0.000
    9      358.299 ||    0.000036           0.001         0.035       0.007
   10      408.074 ||    0.000015           0.000         0.015       0.003
   11      408.074 ||    0.000015           0.000         0.015       0.003
   12      550.272 ||    0.003983           0.092         3.883       0.730
   13      859.668 ||    0.290192           6.695       282.894      53.183
   14      859.668 ||    0.290192           6.695       282.894      53.183
   15     1176.826 ||    0.233994           5.398       228.109      42.883
 ----------------------------------------------------------------------------

 Total times  cpu:      164.6s     wall:      145.6s
