============================== echo of input deck ==============================
ECHO

start molecule

#MEMORY
memory 3584 mb

#TITLE
title "CFCl4"

charge 0

#GEOMETRY
geometry units angstroms print xyz autosym
C          0.01249        0.78594        0.06926
Cl         1.79048        0.78594        0.06926
Cl        -0.58017        1.81550       -1.25361
F         -0.44802        1.27613        1.27601
Cl        -0.58017       -0.87448       -0.16093
end

BASIS "ao basis" SPHERICAL PRINT
#BASIS SET: (7s,4p,1d) -> [3s,2p,1d]
C    S
   1238.4016938              0.54568832082E-02
    186.29004992             0.40638409211E-01
     42.251176346            0.18025593888
     11.676557932            0.46315121755
      3.5930506482           0.44087173314
C    S
      0.40245147363          1.0000000
C    S
      0.13090182668          1.0000000
C    P
      9.4680970621           0.38387871728E-01
      2.0103545142           0.21117025112
      0.54771004707          0.51328172114
C    P
      0.15268613795          1.0000000
C    D
      0.8000000              1.0000000
#BASIS SET: (7s,4p,1d) -> [3s,2p,1d]
F    S
   2894.8325990             -0.53408255515E-02
    435.41939120            -0.39904258866E-01
     98.843328866           -0.17912768038
     27.485198001           -0.46758090825
      8.5405498171          -0.44653131020
F    S
      1.0654578038           1.0000000
F    S
      0.33247346748          1.0000000
F    P
     22.696633924           -0.45212874436E-01
      4.9872339257          -0.23754317067
      1.3491613954          -0.51287353587
F    P
      0.34829881977          1.0000000
F    D
      1.4000000              1.0000000
#BASIS SET: (10s,7p,1d) -> [4s,3p,1d]
Cl    S
  10449.8275660              0.19708362484E-02
   1571.7365221              0.14754727977E-01
    357.12065523             0.66679112875E-01
    100.25185935             0.17228924084
     30.812727554            0.15883786100
Cl    S
     51.923789434           -0.10009298909
      5.7045760975           0.60841752753
      2.3508376809           0.54352153355
Cl    S
      0.44605124672          1.0000000
Cl    S
      0.16848856190          1.0000000
Cl    P
    307.66790569            -0.87801484118E-02
     72.102015515           -0.63563355471E-01
     22.532680262           -0.24016428276
      7.8991765444          -0.47798866557
      2.8767268321          -0.38515850005
Cl    P
      0.77459363955          1.0000000
Cl    P
      0.21037699698          1.0000000
Cl    D
      0.6500000              1.0000000
END

#DFT
dft
  grid medium
  convergence energy 1e-07
  mult 1
  iterations 30
  xc xtpss03 ctpss03
end

#OPT
driver
  default
  maxiter 100
end

set driver:linopt 0

#TASK
task dft optimize
task dft freq numerical

================================================================================

         Total DFT energy =    -1518.058446967138
@ Step       Energy      Delta E   Gmax     Grms     Xrms     Xmax   Walltime
@ ---- ---------------- -------- -------- -------- -------- -------- --------
@    0   -1518.05844697  0.0D+00  0.02593  0.00888  0.00000  0.00000      5.1
         Total DFT energy =    -1518.059876541872
@    1   -1518.05987654 -1.4D-03  0.00264  0.00153  0.03167  0.07963      9.8
         Total DFT energy =    -1518.059913500435
@    2   -1518.05991350 -3.7D-05  0.00083  0.00033  0.00495  0.01006     13.9
         Total DFT energy =    -1518.059915022721
@    3   -1518.05991502 -1.5D-06  0.00004  0.00001  0.00083  0.00228     17.9
         Total DFT energy =    -1518.059915025358
@    4   -1518.05991503 -2.6D-09  0.00000  0.00000  0.00003  0.00008     21.1
@    4   -1518.05991503 -2.6D-09  0.00000  0.00000  0.00003  0.00008     21.1

 Output coordinates in angstroms (scale by  1.889725989 to convert to a.u.)

  No.       Tag          Charge          X              Y              Z
 ---- ---------------- ---------- -------------- -------------- --------------
    1 C                    6.0000     0.00000000     0.00000000     0.26682532
    2 Cl                  17.0000    -0.11679354    -1.69164602    -0.30724325
    3 Cl                  17.0000     1.52340520     0.74467684    -0.30724325
    4 F                    9.0000    -0.00000000     0.00000000     1.60632412
    5 Cl                  17.0000    -1.40661166     0.94696918    -0.30724325

         Total DFT energy =    -1518.059915022983

                       DFT Final Molecular Orbital Analysis
                       ------------------------------------

 Vector    1  Occ=2.000000D+00  E=-1.010016D+02  Symmetry=e+

 Vector    3  Occ=2.000000D+00  E=-1.010015D+02  Symmetry=a

 Vector    4  Occ=2.000000D+00  E=-2.447845D+01  Symmetry=a

 Vector    5  Occ=2.000000D+00  E=-1.025111D+01  Symmetry=a

 Vector    6  Occ=2.000000D+00  E=-9.276691D+00  Symmetry=e+

 Vector    7  Occ=2.000000D+00  E=-9.276691D+00  Symmetry=e+

 Vector    8  Occ=2.000000D+00  E=-9.276655D+00  Symmetry=a

 Vector    9  Occ=2.000000D+00  E=-7.065050D+00  Symmetry=e+

 Vector   10  Occ=2.000000D+00  E=-7.065050D+00  Symmetry=e+

 Vector   11  Occ=2.000000D+00  E=-7.065028D+00  Symmetry=a

 Vector   12  Occ=2.000000D+00  E=-7.052132D+00  Symmetry=e+

 Vector   13  Occ=2.000000D+00  E=-7.052132D+00  Symmetry=e+

 Vector   14  Occ=2.000000D+00  E=-7.052128D+00  Symmetry=a

 Vector   15  Occ=2.000000D+00  E=-7.052037D+00  Symmetry=a

 Vector   16  Occ=2.000000D+00  E=-7.052019D+00  Symmetry=e+

 Vector   17  Occ=2.000000D+00  E=-7.052019D+00  Symmetry=e+

 Vector   18  Occ=2.000000D+00  E=-1.190807D+00  Symmetry=a

 Vector   19  Occ=2.000000D+00  E=-8.743189D-01  Symmetry=a

 Vector   20  Occ=2.000000D+00  E=-7.946103D-01  Symmetry=e+

 Vector   21  Occ=2.000000D+00  E=-7.946103D-01  Symmetry=e+

 Vector   22  Occ=2.000000D+00  E=-6.096561D-01  Symmetry=a

 Vector   23  Occ=2.000000D+00  E=-5.128303D-01  Symmetry=a

 Vector   24  Occ=2.000000D+00  E=-4.967142D-01  Symmetry=e+

 Vector   25  Occ=2.000000D+00  E=-4.967142D-01  Symmetry=e+

 Vector   26  Occ=2.000000D+00  E=-3.836451D-01  Symmetry=e+

 Vector   27  Occ=2.000000D+00  E=-3.836451D-01  Symmetry=e+

 Vector   28  Occ=2.000000D+00  E=-3.334343D-01  Symmetry=a

 Vector   29  Occ=2.000000D+00  E=-3.239667D-01  Symmetry=e+

 Vector   30  Occ=2.000000D+00  E=-3.239667D-01  Symmetry=e+

 Vector   31  Occ=2.000000D+00  E=-2.953990D-01  Symmetry=e+

 Vector   32  Occ=2.000000D+00  E=-2.953990D-01  Symmetry=e+

 Vector   33  Occ=2.000000D+00  E=-2.826798D-01  Symmetry=a

 Vector   34  Occ=0.000000D+00  E=-7.182278D-02  Symmetry=a

 Vector   35  Occ=0.000000D+00  E=-1.833407D-02  Symmetry=e+

 Vector   36  Occ=0.000000D+00  E=-1.833407D-02  Symmetry=e+

 Vector   37  Occ=0.000000D+00  E= 6.528748D-02  Symmetry=a

 Vector   38  Occ=0.000000D+00  E= 3.288044D-01  Symmetry=a

 Vector   39  Occ=0.000000D+00  E= 3.765096D-01  Symmetry=e+

 Vector   40  Occ=0.000000D+00  E= 3.765096D-01  Symmetry=e+

 Vector   41  Occ=0.000000D+00  E= 4.091921D-01  Symmetry=a

 Vector   42  Occ=0.000000D+00  E= 5.000729D-01  Symmetry=e+

 Vector   43  Occ=0.000000D+00  E= 5.000729D-01  Symmetry=e+

 Vector   44  Occ=0.000000D+00  E= 6.004101D-01  Symmetry=a

 Vector   45  Occ=0.000000D+00  E= 6.105996D-01  Symmetry=e+

 Vector   46  Occ=0.000000D+00  E= 6.105996D-01  Symmetry=e+

 Vector   47  Occ=0.000000D+00  E= 6.664750D-01  Symmetry=a

 Vector   48  Occ=0.000000D+00  E= 6.761943D-01  Symmetry=e+

 Vector   49  Occ=0.000000D+00  E= 6.761943D-01  Symmetry=e+

 Vector   50  Occ=0.000000D+00  E= 6.975631D-01  Symmetry=a

 Vector   51  Occ=0.000000D+00  E= 6.980959D-01  Symmetry=e+

 Vector   52  Occ=0.000000D+00  E= 6.980959D-01  Symmetry=e+

 Vector   53  Occ=0.000000D+00  E= 7.061638D-01  Symmetry=a

 Vector   54  Occ=0.000000D+00  E= 7.121574D-01  Symmetry=e+

 Vector   55  Occ=0.000000D+00  E= 7.121574D-01  Symmetry=e+

 Vector   56  Occ=0.000000D+00  E= 7.268507D-01  Symmetry=a

 Vector   57  Occ=0.000000D+00  E= 7.800617D-01  Symmetry=e+

 Vector   58  Occ=0.000000D+00  E= 7.800617D-01  Symmetry=e+

 Vector   59  Occ=0.000000D+00  E= 7.805962D-01  Symmetry=a

 Vector   60  Occ=0.000000D+00  E= 8.206746D-01  Symmetry=e+

 Vector   61  Occ=0.000000D+00  E= 8.206746D-01  Symmetry=e+

 Vector   62  Occ=0.000000D+00  E= 9.853539D-01  Symmetry=a

 Vector   63  Occ=0.000000D+00  E= 9.885110D-01  Symmetry=a

 Vector   64  Occ=0.000000D+00  E= 1.034598D+00  Symmetry=e+

 Vector   65  Occ=0.000000D+00  E= 1.034598D+00  Symmetry=e+

 Vector   66  Occ=0.000000D+00  E= 1.192946D+00  Symmetry=a

 Vector   67  Occ=0.000000D+00  E= 1.197534D+00  Symmetry=e+

 Vector   68  Occ=0.000000D+00  E= 1.197534D+00  Symmetry=e+

 Vector   69  Occ=0.000000D+00  E= 1.301239D+00  Symmetry=a

 Vector   70  Occ=0.000000D+00  E= 1.342779D+00  Symmetry=e+

 Vector   71  Occ=0.000000D+00  E= 1.342779D+00  Symmetry=e+

 Vector   72  Occ=0.000000D+00  E= 1.627819D+00  Symmetry=e+

 Vector   73  Occ=0.000000D+00  E= 1.627819D+00  Symmetry=e+

 Vector   74  Occ=0.000000D+00  E= 1.833857D+00  Symmetry=a

 Vector   75  Occ=0.000000D+00  E= 2.000927D+00  Symmetry=a

 Vector   76  Occ=0.000000D+00  E= 2.009801D+00  Symmetry=e+

 Vector   77  Occ=0.000000D+00  E= 2.009801D+00  Symmetry=e+

 Vector   78  Occ=0.000000D+00  E= 2.977119D+00  Symmetry=e+

 Vector   79  Occ=0.000000D+00  E= 2.977119D+00  Symmetry=e+

 Vector   80  Occ=0.000000D+00  E= 3.217262D+00  Symmetry=e+

 Vector   81  Occ=0.000000D+00  E= 3.217262D+00  Symmetry=e+

 Vector   82  Occ=0.000000D+00  E= 3.680434D+00  Symmetry=a

     Multipole analysis of the density
     ---------------------------------

     L   x y z        total         alpha         beta         nuclear
     -   - - -        -----         -----         ----         -------
     0   0 0 0     -0.000000    -33.000000    -33.000000     66.000000

     1   1 0 0      0.000000      0.000000      0.000000      0.000000
     1   0 1 0     -0.000000     -0.000000     -0.000000      0.000000
     1   0 0 1     -0.075058     -0.404573     -0.404573      0.734089

     2   2 0 0    -34.546149   -148.188879   -148.188879    261.831609
     2   1 1 0      0.000000      0.000000      0.000000      0.000000
     2   1 0 1      0.000000      0.000000      0.000000     -0.000000
     2   0 2 0    -34.546149   -148.188879   -148.188879    261.831609
     2   0 1 1     -0.000000     -0.000000     -0.000000     -0.000000

         Total DFT energy =    -1518.059907929585
         Total DFT energy =    -1518.059908123133
         Total DFT energy =    -1518.059907986406
         Total DFT energy =    -1518.059908052487
         Total DFT energy =    -1518.059900459229
         Total DFT energy =    -1518.059901094001
         Total DFT energy =    -1518.059917105413
         Total DFT energy =    -1518.059917155300
         Total DFT energy =    -1518.059917118196
         Total DFT energy =    -1518.059917148324
         Total DFT energy =    -1518.059901977829
         Total DFT energy =    -1518.059901219836
         Total DFT energy =    -1518.059914251930
         Total DFT energy =    -1518.059914221493
         Total DFT energy =    -1518.059916661815
         Total DFT energy =    -1518.059916731623
         Total DFT energy =    -1518.059917815087
         Total DFT energy =    -1518.059917913622
 Zero-Point correction to Energy  =    6.790 kcal/mol  (  0.010820 au)
 Thermal correction to Energy     =   10.111 kcal/mol  (  0.016113 au)
 Thermal correction to Enthalpy   =   10.703 kcal/mol  (  0.017056 au)
 Total Entropy                    =   74.471 cal/mol-K
   - Translational                =   40.614 cal/mol-K (mol. weight = 135.9050)
   - Rotational                   =   25.706 cal/mol-K (symmetry #  =        3)
   - Vibrational                  =    8.150 cal/mol-K
   - Translational                  =    2.979 cal/mol-K
   - Rotational                     =    2.979 cal/mol-K
   - Vibrational                    =   11.052 cal/mol-K
 P.Frequency       -0.00       -0.00        0.00        0.00        0.00        0.00
 P.Frequency      231.61      231.61      336.09      382.24      382.24      513.04
 P.Frequency      783.17      783.17     1108.61

 Normal Eigenvalue ||           Projected Infra Red Intensities
  Mode   [cm**-1]  || [atomic units] [(debye/angs)**2] [(KM/mol)] [arbitrary]
 ------ ---------- || -------------- ----------------- ---------- -----------
    1       -0.000 ||    0.000000           0.000         0.000       0.000
    2       -0.000 ||    0.000003           0.000         0.003       0.001
    3        0.000 ||    0.000001           0.000         0.001       0.000
    4        0.000 ||    0.000003           0.000         0.003       0.001
    5        0.000 ||    0.000001           0.000         0.001       0.000
    6        0.000 ||    0.000000           0.000         0.000       0.000
    7      231.608 ||    0.000008           0.000         0.008       0.001
    8      231.608 ||    0.000008           0.000         0.008       0.001
    9      336.089 ||    0.000010           0.000         0.010       0.002
   10      382.238 ||    0.000898           0.021         0.875       0.161
   11      382.238 ||    0.000898           0.021         0.875       0.161
   12      513.035 ||    0.005559           0.128         5.419       0.994
   13      783.166 ||    0.299197           6.903       291.672      53.502
   14      783.166 ||    0.299197           6.903       291.672      53.502
   15     1108.608 ||    0.233055           5.377       227.193      41.675
 ----------------------------------------------------------------------------

 Total times  cpu:      213.0s     wall:      181.2s
