============================== echo of input deck ==============================
ECHO

start molecule

#MEMORY
memory 3584 mb

#TITLE
title "CFCl4"

charge 0

#GEOMETRY
geometry units angstroms print xyz autosym
C          0.01249        0.78594        0.06926
Cl         1.79048        0.78594        0.06926
Cl        -0.58017        1.81550       -1.25361
F         -0.44802        1.27613        1.27601
Cl        -0.58017       -0.87448       -0.16093
end

BASIS "ao basis" SPHERICAL PRINT
#BASIS SET: (7s,4p,1d) -> [3s,2p,1d]
C    S
   1238.4016938              0.54568832082E-02
    186.29004992             0.40638409211E-01
     42.251176346            0.18025593888
     11.676557932            0.46315121755
      3.5930506482           0.44087173314
C    S
      0.40245147363          1.0000000
C    S
      0.13090182668          1.0000000
C    P
      9.4680970621           0.38387871728E-01
      2.0103545142           0.21117025112
      0.54771004707          0.51328172114
C    P
      0.15268613795          1.0000000
C    D
      0.8000000              1.0000000
#BASIS SET: (7s,4p,1d) -> [3s,2p,1d]
F    S
   2894.8325990             -0.53408255515E-02
    435.41939120            -0.39904258866E-01
     98.843328866           -0.17912768038
     27.485198001           -0.46758090825
      8.5405498171          -0.44653131020
F    S
      1.0654578038           1.0000000
F    S
      0.33247346748          1.0000000
F    P
     22.696633924           -0.45212874436E-01
      4.9872339257          -0.23754317067
      1.3491613954          -0.51287353587
F    P
      0.34829881977          1.0000000
F    D
      1.4000000              1.0000000
#BASIS SET: (10s,7p,1d) -> [4s,3p,1d]
Cl    S
  10449.8275660              0.19708362484E-02
   1571.7365221              0.14754727977E-01
    357.12065523             0.66679112875E-01
    100.25185935             0.17228924084
     30.812727554            0.15883786100
Cl    S
     51.923789434           -0.10009298909
      5.7045760975           0.60841752753
      2.3508376809           0.54352153355
Cl    S
      0.44605124672          1.0000000
Cl    S
      0.16848856190          1.0000000
Cl    P
    307.66790569            -0.87801484118E-02
     72.102015515           -0.63563355471E-01
     22.532680262           -0.24016428276
      7.8991765444          -0.47798866557
      2.8767268321          -0.38515850005
Cl    P
      0.77459363955          1.0000000
Cl    P
      0.21037699698          1.0000000
Cl    D
      0.6500000              1.0000000
END

#DFT
dft
  grid medium
  convergence energy 1e-07
  mult 1
  iterations 30
  xc beckehandh
end

#OPT
driver
  default
  maxiter 100
end

set driver:linopt 0

#TASK
task dft optimize
task dft freq numerical

================================================================================

         Total DFT energy =    -1513.870274646378
@ Step       Energy      Delta E   Gmax     Grms     Xrms     Xmax   Walltime
@ ---- ---------------- -------- -------- -------- -------- -------- --------
@    0   -1513.87027465  0.0D+00  0.05244  0.01829  0.00000  0.00000      4.2
         Total DFT energy =    -1513.874591518266
@    1   -1513.87459152 -4.3D-03  0.01248  0.00409  0.03611  0.11403      8.0
         Total DFT energy =    -1513.874766929653
@    2   -1513.87476693 -1.8D-04  0.00271  0.00090  0.00789  0.02680     10.8
         Total DFT energy =    -1513.874775074394
@    3   -1513.87477507 -8.1D-06  0.00013  0.00004  0.00146  0.00493     13.7
         Total DFT energy =    -1513.874775091465
@    4   -1513.87477509 -1.7D-08  0.00001  0.00000  0.00006  0.00020     16.1
@    4   -1513.87477509 -1.7D-08  0.00001  0.00000  0.00006  0.00020     16.1

 Output coordinates in angstroms (scale by  1.889725989 to convert to a.u.)

  No.       Tag          Charge          X              Y              Z
 ---- ---------------- ---------- -------------- -------------- --------------
    1 C                    6.0000     0.00000000     0.00000000     0.26237609
    2 Cl                  17.0000    -0.11501064    -1.66582234    -0.29665892
    3 Cl                  17.0000     1.50014978     0.73330904    -0.29665892
    4 F                    9.0000    -0.00000000     0.00000000     1.57902036
    5 Cl                  17.0000    -1.38513915     0.93251330    -0.29665892

         Total DFT energy =    -1513.874775091786

                       DFT Final Molecular Orbital Analysis
                       ------------------------------------

 Vector    1  Occ=2.000000D+00  E=-1.025661D+02  Symmetry=e+

 Vector    3  Occ=2.000000D+00  E=-1.025660D+02  Symmetry=a

 Vector    4  Occ=2.000000D+00  E=-2.525346D+01  Symmetry=a

 Vector    5  Occ=2.000000D+00  E=-1.077174D+01  Symmetry=a

 Vector    6  Occ=2.000000D+00  E=-9.880743D+00  Symmetry=e+

 Vector    7  Occ=2.000000D+00  E=-9.880743D+00  Symmetry=e+

 Vector    8  Occ=2.000000D+00  E=-9.880702D+00  Symmetry=a

 Vector    9  Occ=2.000000D+00  E=-7.552311D+00  Symmetry=e+

 Vector   10  Occ=2.000000D+00  E=-7.552311D+00  Symmetry=e+

 Vector   11  Occ=2.000000D+00  E=-7.552285D+00  Symmetry=a

 Vector   12  Occ=2.000000D+00  E=-7.543613D+00  Symmetry=e+

 Vector   13  Occ=2.000000D+00  E=-7.543613D+00  Symmetry=e+

 Vector   14  Occ=2.000000D+00  E=-7.543606D+00  Symmetry=a

 Vector   15  Occ=2.000000D+00  E=-7.543548D+00  Symmetry=a

 Vector   16  Occ=2.000000D+00  E=-7.543529D+00  Symmetry=e+

 Vector   17  Occ=2.000000D+00  E=-7.543529D+00  Symmetry=e+

 Vector   18  Occ=2.000000D+00  E=-1.425524D+00  Symmetry=a

 Vector   19  Occ=2.000000D+00  E=-1.055912D+00  Symmetry=a

 Vector   20  Occ=2.000000D+00  E=-9.597816D-01  Symmetry=e+

 Vector   21  Occ=2.000000D+00  E=-9.597816D-01  Symmetry=e+

 Vector   22  Occ=2.000000D+00  E=-7.506453D-01  Symmetry=a

 Vector   23  Occ=2.000000D+00  E=-6.321329D-01  Symmetry=e+

 Vector   24  Occ=2.000000D+00  E=-6.321329D-01  Symmetry=e+

 Vector   25  Occ=2.000000D+00  E=-6.306238D-01  Symmetry=a

 Vector   26  Occ=2.000000D+00  E=-4.980333D-01  Symmetry=e+

 Vector   27  Occ=2.000000D+00  E=-4.980333D-01  Symmetry=e+

 Vector   28  Occ=2.000000D+00  E=-4.272445D-01  Symmetry=a

 Vector   29  Occ=2.000000D+00  E=-4.141198D-01  Symmetry=e+

 Vector   30  Occ=2.000000D+00  E=-4.141198D-01  Symmetry=e+

 Vector   31  Occ=2.000000D+00  E=-3.820630D-01  Symmetry=e+

 Vector   32  Occ=2.000000D+00  E=-3.820630D-01  Symmetry=e+

 Vector   33  Occ=2.000000D+00  E=-3.668205D-01  Symmetry=a

 Vector   34  Occ=0.000000D+00  E= 4.046691D-02  Symmetry=a

 Vector   35  Occ=0.000000D+00  E= 9.451096D-02  Symmetry=e+

 Vector   36  Occ=0.000000D+00  E= 9.451096D-02  Symmetry=e+

 Vector   37  Occ=0.000000D+00  E= 1.866751D-01  Symmetry=a

 Vector   38  Occ=0.000000D+00  E= 4.123648D-01  Symmetry=a

 Vector   39  Occ=0.000000D+00  E= 4.735433D-01  Symmetry=e+

 Vector   40  Occ=0.000000D+00  E= 4.735433D-01  Symmetry=e+

 Vector   41  Occ=0.000000D+00  E= 5.422904D-01  Symmetry=a

 Vector   42  Occ=0.000000D+00  E= 5.992309D-01  Symmetry=e+

 Vector   43  Occ=0.000000D+00  E= 5.992309D-01  Symmetry=e+

 Vector   44  Occ=0.000000D+00  E= 7.036361D-01  Symmetry=a

 Vector   45  Occ=0.000000D+00  E= 7.400727D-01  Symmetry=e+

 Vector   46  Occ=0.000000D+00  E= 7.400727D-01  Symmetry=e+

 Vector   47  Occ=0.000000D+00  E= 8.061815D-01  Symmetry=a

 Vector   48  Occ=0.000000D+00  E= 8.082620D-01  Symmetry=e+

 Vector   49  Occ=0.000000D+00  E= 8.082620D-01  Symmetry=e+

 Vector   50  Occ=0.000000D+00  E= 8.295517D-01  Symmetry=a

 Vector   51  Occ=0.000000D+00  E= 8.357790D-01  Symmetry=e+

 Vector   52  Occ=0.000000D+00  E= 8.357790D-01  Symmetry=e+

 Vector   53  Occ=0.000000D+00  E= 8.471379D-01  Symmetry=a

 Vector   54  Occ=0.000000D+00  E= 8.617836D-01  Symmetry=e+

 Vector   55  Occ=0.000000D+00  E= 8.617836D-01  Symmetry=e+

 Vector   56  Occ=0.000000D+00  E= 8.736433D-01  Symmetry=a

 Vector   57  Occ=0.000000D+00  E= 9.081830D-01  Symmetry=e+

 Vector   58  Occ=0.000000D+00  E= 9.081830D-01  Symmetry=e+

 Vector   59  Occ=0.000000D+00  E= 9.106452D-01  Symmetry=a

 Vector   60  Occ=0.000000D+00  E= 9.494500D-01  Symmetry=e+

 Vector   61  Occ=0.000000D+00  E= 9.494500D-01  Symmetry=e+

 Vector   62  Occ=0.000000D+00  E= 1.120014D+00  Symmetry=a

 Vector   63  Occ=0.000000D+00  E= 1.125289D+00  Symmetry=a

 Vector   64  Occ=0.000000D+00  E= 1.177281D+00  Symmetry=e+

 Vector   65  Occ=0.000000D+00  E= 1.177281D+00  Symmetry=e+

 Vector   66  Occ=0.000000D+00  E= 1.338933D+00  Symmetry=a

 Vector   67  Occ=0.000000D+00  E= 1.353133D+00  Symmetry=e+

 Vector   68  Occ=0.000000D+00  E= 1.353133D+00  Symmetry=e+

 Vector   69  Occ=0.000000D+00  E= 1.453075D+00  Symmetry=a

 Vector   70  Occ=0.000000D+00  E= 1.506311D+00  Symmetry=e+

 Vector   71  Occ=0.000000D+00  E= 1.506311D+00  Symmetry=e+

 Vector   72  Occ=0.000000D+00  E= 1.792395D+00  Symmetry=e+

 Vector   73  Occ=0.000000D+00  E= 1.792395D+00  Symmetry=e+

 Vector   74  Occ=0.000000D+00  E= 1.975215D+00  Symmetry=a

 Vector   75  Occ=0.000000D+00  E= 2.182455D+00  Symmetry=e+

 Vector   76  Occ=0.000000D+00  E= 2.182455D+00  Symmetry=e+

 Vector   77  Occ=0.000000D+00  E= 2.217645D+00  Symmetry=a

 Vector   78  Occ=0.000000D+00  E= 3.170930D+00  Symmetry=e+

 Vector   79  Occ=0.000000D+00  E= 3.170930D+00  Symmetry=e+

 Vector   80  Occ=0.000000D+00  E= 3.442691D+00  Symmetry=e+

 Vector   81  Occ=0.000000D+00  E= 3.442691D+00  Symmetry=e+

 Vector   82  Occ=0.000000D+00  E= 3.921682D+00  Symmetry=a

     Multipole analysis of the density
     ---------------------------------

     L   x y z        total         alpha         beta         nuclear
     -   - - -        -----         -----         ----         -------
     0   0 0 0     -0.000000    -33.000000    -33.000000     66.000000

     1   1 0 0     -0.000000     -0.000000     -0.000000     -0.000000
     1   0 1 0     -0.000000     -0.000000     -0.000000      0.000000
     1   0 0 1     -0.147971     -0.693659     -0.693659      1.239348

     2   2 0 0    -34.695157   -144.296922   -144.296922    253.898686
     2   1 1 0      0.000000      0.000000      0.000000     -0.000000
     2   1 0 1     -0.000000     -0.000000     -0.000000      0.000000
     2   0 2 0    -34.695157   -144.296922   -144.296922    253.898686
     2   0 1 1      0.000000      0.000000      0.000000      0.000000

         Total DFT energy =    -1513.874759186404
         Total DFT energy =    -1513.874759205457
         Total DFT energy =    -1513.874759259967
         Total DFT energy =    -1513.874759126591
         Total DFT energy =    -1513.874751242536
         Total DFT energy =    -1513.874751609892
         Total DFT energy =    -1513.874771687394
         Total DFT energy =    -1513.874771686135
         Total DFT energy =    -1513.874771688505
         Total DFT energy =    -1513.874771685543
         Total DFT energy =    -1513.874752903179
         Total DFT energy =    -1513.874752365941
         Total DFT energy =    -1513.874767558559
         Total DFT energy =    -1513.874767702891
         Total DFT energy =    -1513.874770903434
         Total DFT energy =    -1513.874770846275
         Total DFT energy =    -1513.874772477310
         Total DFT energy =    -1513.874772523781
 Zero-Point correction to Energy  =    7.608 kcal/mol  (  0.012125 au)
 Thermal correction to Energy     =   10.751 kcal/mol  (  0.017133 au)
 Thermal correction to Enthalpy   =   11.343 kcal/mol  (  0.018077 au)
 Total Entropy                    =   73.286 cal/mol-K
   - Translational                =   40.614 cal/mol-K (mol. weight = 135.9050)
   - Rotational                   =   25.609 cal/mol-K (symmetry #  =        3)
   - Vibrational                  =    7.062 cal/mol-K
   - Translational                  =    2.979 cal/mol-K
   - Rotational                     =    2.979 cal/mol-K
   - Vibrational                    =   10.170 cal/mol-K
 P.Frequency       -0.00       -0.00       -0.00       -0.00       -0.00        0.00
 P.Frequency      255.94      255.94      368.29      421.51      421.51      565.50
 P.Frequency      902.46      902.46     1231.13

 Normal Eigenvalue ||           Projected Infra Red Intensities
  Mode   [cm**-1]  || [atomic units] [(debye/angs)**2] [(KM/mol)] [arbitrary]
 ------ ---------- || -------------- ----------------- ---------- -----------
    1       -0.000 ||    0.000000           0.000         0.000       0.000
    2       -0.000 ||    0.000011           0.000         0.010       0.002
    3       -0.000 ||    0.000000           0.000         0.000       0.000
    4       -0.000 ||    0.000021           0.000         0.020       0.004
    5       -0.000 ||    0.000009           0.000         0.009       0.002
    6        0.000 ||    0.000022           0.000         0.021       0.004
    7      255.943 ||    0.000003           0.000         0.003       0.001
    8      255.943 ||    0.000003           0.000         0.003       0.001
    9      368.287 ||    0.000077           0.002         0.075       0.014
   10      421.508 ||    0.000053           0.001         0.051       0.010
   11      421.508 ||    0.000053           0.001         0.051       0.010
   12      565.495 ||    0.003433           0.079         3.347       0.635
   13      902.459 ||    0.283718           6.546       276.583      52.511
   14      902.459 ||    0.283718           6.546       276.583      52.511
   15     1231.125 ||    0.239329           5.522       233.310      44.296
 ----------------------------------------------------------------------------

 Total times  cpu:      113.5s     wall:      109.4s
