============================== echo of input deck ==============================
ECHO

start molecule

#MEMORY
memory 3584 mb

#TITLE
title "CFCl4"

charge 0

#GEOMETRY
geometry units angstroms print xyz autosym
C          0.01249        0.78594        0.06926
Cl         1.79048        0.78594        0.06926
Cl        -0.58017        1.81550       -1.25361
F         -0.44802        1.27613        1.27601
Cl        -0.58017       -0.87448       -0.16093
end

BASIS "ao basis" SPHERICAL PRINT
#BASIS SET: (7s,4p,1d) -> [3s,2p,1d]
C    S
   1238.4016938              0.54568832082E-02
    186.29004992             0.40638409211E-01
     42.251176346            0.18025593888
     11.676557932            0.46315121755
      3.5930506482           0.44087173314
C    S
      0.40245147363          1.0000000
C    S
      0.13090182668          1.0000000
C    P
      9.4680970621           0.38387871728E-01
      2.0103545142           0.21117025112
      0.54771004707          0.51328172114
C    P
      0.15268613795          1.0000000
C    D
      0.8000000              1.0000000
#BASIS SET: (7s,4p,1d) -> [3s,2p,1d]
F    S
   2894.8325990             -0.53408255515E-02
    435.41939120            -0.39904258866E-01
     98.843328866           -0.17912768038
     27.485198001           -0.46758090825
      8.5405498171          -0.44653131020
F    S
      1.0654578038           1.0000000
F    S
      0.33247346748          1.0000000
F    P
     22.696633924           -0.45212874436E-01
      4.9872339257          -0.23754317067
      1.3491613954          -0.51287353587
F    P
      0.34829881977          1.0000000
F    D
      1.4000000              1.0000000
#BASIS SET: (10s,7p,1d) -> [4s,3p,1d]
Cl    S
  10449.8275660              0.19708362484E-02
   1571.7365221              0.14754727977E-01
    357.12065523             0.66679112875E-01
    100.25185935             0.17228924084
     30.812727554            0.15883786100
Cl    S
     51.923789434           -0.10009298909
      5.7045760975           0.60841752753
      2.3508376809           0.54352153355
Cl    S
      0.44605124672          1.0000000
Cl    S
      0.16848856190          1.0000000
Cl    P
    307.66790569            -0.87801484118E-02
     72.102015515           -0.63563355471E-01
     22.532680262           -0.24016428276
      7.8991765444          -0.47798866557
      2.8767268321          -0.38515850005
Cl    P
      0.77459363955          1.0000000
Cl    P
      0.21037699698          1.0000000
Cl    D
      0.6500000              1.0000000
END

#DFT
dft
  grid medium
  convergence energy 1e-07
  mult 1
  iterations 30
  xc mpwb1k
end

#OPT
driver
  default
  maxiter 100
end

set driver:linopt 0

#TASK
task dft optimize
task dft freq numerical

================================================================================

         Total DFT energy =    -1518.119043058921
@ Step       Energy      Delta E   Gmax     Grms     Xrms     Xmax   Walltime
@ ---- ---------------- -------- -------- -------- -------- -------- --------
@    0   -1518.11904306  0.0D+00  0.05320  0.01952  0.00000  0.00000      5.1
         Total DFT energy =    -1518.124047069266
@    1   -1518.12404707 -5.0D-03  0.01026  0.00347  0.03696  0.11236     10.0
         Total DFT energy =    -1518.124179300758
@    2   -1518.12417930 -1.3D-04  0.00229  0.00075  0.00915  0.02934     14.5
         Total DFT energy =    -1518.124187415717
@    3   -1518.12418742 -8.1D-06  0.00010  0.00003  0.00129  0.00442     18.8
         Total DFT energy =    -1518.124187428519
@    4   -1518.12418743 -1.3D-08  0.00001  0.00000  0.00005  0.00014     22.0
@    4   -1518.12418743 -1.3D-08  0.00001  0.00000  0.00005  0.00014     22.0

 Output coordinates in angstroms (scale by  1.889725989 to convert to a.u.)

  No.       Tag          Charge          X              Y              Z
 ---- ---------------- ---------- -------------- -------------- --------------
    1 C                    6.0000    -0.00000000     0.00000000     0.26147156
    2 Cl                  17.0000    -0.11439888    -1.65696168    -0.29616748
    3 Cl                  17.0000     1.49217035     0.72940850    -0.29616748
    4 F                    9.0000    -0.00000000     0.00000000     1.57845058
    5 Cl                  17.0000    -1.37777146     0.92755318    -0.29616748

         Total DFT energy =    -1518.124187428727

                       DFT Final Molecular Orbital Analysis
                       ------------------------------------

 Vector    1  Occ=2.000000D+00  E=-1.025318D+02  Symmetry=e+

 Vector    3  Occ=2.000000D+00  E=-1.025318D+02  Symmetry=a

 Vector    4  Occ=2.000000D+00  E=-2.523424D+01  Symmetry=a

 Vector    5  Occ=2.000000D+00  E=-1.076252D+01  Symmetry=a

 Vector    6  Occ=2.000000D+00  E=-9.824087D+00  Symmetry=e+

 Vector    7  Occ=2.000000D+00  E=-9.824087D+00  Symmetry=e+

 Vector    8  Occ=2.000000D+00  E=-9.824054D+00  Symmetry=a

 Vector    9  Occ=2.000000D+00  E=-7.507446D+00  Symmetry=e+

 Vector   10  Occ=2.000000D+00  E=-7.507446D+00  Symmetry=e+

 Vector   11  Occ=2.000000D+00  E=-7.507424D+00  Symmetry=a

 Vector   12  Occ=2.000000D+00  E=-7.498155D+00  Symmetry=e+

 Vector   13  Occ=2.000000D+00  E=-7.498155D+00  Symmetry=e+

 Vector   14  Occ=2.000000D+00  E=-7.498149D+00  Symmetry=a

 Vector   15  Occ=2.000000D+00  E=-7.498080D+00  Symmetry=a

 Vector   16  Occ=2.000000D+00  E=-7.498064D+00  Symmetry=e+

 Vector   17  Occ=2.000000D+00  E=-7.498064D+00  Symmetry=e+

 Vector   18  Occ=2.000000D+00  E=-1.403636D+00  Symmetry=a

 Vector   19  Occ=2.000000D+00  E=-1.041588D+00  Symmetry=a

 Vector   20  Occ=2.000000D+00  E=-9.456532D-01  Symmetry=e+

 Vector   21  Occ=2.000000D+00  E=-9.456532D-01  Symmetry=e+

 Vector   22  Occ=2.000000D+00  E=-7.409418D-01  Symmetry=a

 Vector   23  Occ=2.000000D+00  E=-6.259779D-01  Symmetry=a

 Vector   24  Occ=2.000000D+00  E=-6.243639D-01  Symmetry=e+

 Vector   25  Occ=2.000000D+00  E=-6.243639D-01  Symmetry=e+

 Vector   26  Occ=2.000000D+00  E=-4.948676D-01  Symmetry=e+

 Vector   27  Occ=2.000000D+00  E=-4.948676D-01  Symmetry=e+

 Vector   28  Occ=2.000000D+00  E=-4.264385D-01  Symmetry=a

 Vector   29  Occ=2.000000D+00  E=-4.134852D-01  Symmetry=e+

 Vector   30  Occ=2.000000D+00  E=-4.134852D-01  Symmetry=e+

 Vector   31  Occ=2.000000D+00  E=-3.813536D-01  Symmetry=e+

 Vector   32  Occ=2.000000D+00  E=-3.813536D-01  Symmetry=e+

 Vector   33  Occ=2.000000D+00  E=-3.661401D-01  Symmetry=a

 Vector   34  Occ=0.000000D+00  E= 1.720196D-02  Symmetry=a

 Vector   35  Occ=0.000000D+00  E= 6.989410D-02  Symmetry=e+

 Vector   36  Occ=0.000000D+00  E= 6.989410D-02  Symmetry=e+

 Vector   37  Occ=0.000000D+00  E= 1.583247D-01  Symmetry=a

 Vector   38  Occ=0.000000D+00  E= 3.883052D-01  Symmetry=a

 Vector   39  Occ=0.000000D+00  E= 4.430959D-01  Symmetry=e+

 Vector   40  Occ=0.000000D+00  E= 4.430959D-01  Symmetry=e+

 Vector   41  Occ=0.000000D+00  E= 5.120389D-01  Symmetry=a

 Vector   42  Occ=0.000000D+00  E= 5.740061D-01  Symmetry=e+

 Vector   43  Occ=0.000000D+00  E= 5.740061D-01  Symmetry=e+

 Vector   44  Occ=0.000000D+00  E= 6.705665D-01  Symmetry=a

 Vector   45  Occ=0.000000D+00  E= 6.943075D-01  Symmetry=e+

 Vector   46  Occ=0.000000D+00  E= 6.943075D-01  Symmetry=e+

 Vector   47  Occ=0.000000D+00  E= 7.616234D-01  Symmetry=a

 Vector   48  Occ=0.000000D+00  E= 7.672358D-01  Symmetry=e+

 Vector   49  Occ=0.000000D+00  E= 7.672358D-01  Symmetry=e+

 Vector   50  Occ=0.000000D+00  E= 7.880810D-01  Symmetry=a

 Vector   51  Occ=0.000000D+00  E= 7.921443D-01  Symmetry=e+

 Vector   52  Occ=0.000000D+00  E= 7.921443D-01  Symmetry=e+

 Vector   53  Occ=0.000000D+00  E= 8.026329D-01  Symmetry=a

 Vector   54  Occ=0.000000D+00  E= 8.213215D-01  Symmetry=e+

 Vector   55  Occ=0.000000D+00  E= 8.213215D-01  Symmetry=e+

 Vector   56  Occ=0.000000D+00  E= 8.372947D-01  Symmetry=a

 Vector   57  Occ=0.000000D+00  E= 8.716645D-01  Symmetry=e+

 Vector   58  Occ=0.000000D+00  E= 8.716645D-01  Symmetry=e+

 Vector   59  Occ=0.000000D+00  E= 8.746698D-01  Symmetry=a

 Vector   60  Occ=0.000000D+00  E= 9.150274D-01  Symmetry=e+

 Vector   61  Occ=0.000000D+00  E= 9.150274D-01  Symmetry=e+

 Vector   62  Occ=0.000000D+00  E= 1.086950D+00  Symmetry=a

 Vector   63  Occ=0.000000D+00  E= 1.090820D+00  Symmetry=a

 Vector   64  Occ=0.000000D+00  E= 1.139260D+00  Symmetry=e+

 Vector   65  Occ=0.000000D+00  E= 1.139260D+00  Symmetry=e+

 Vector   66  Occ=0.000000D+00  E= 1.297695D+00  Symmetry=a

 Vector   67  Occ=0.000000D+00  E= 1.313699D+00  Symmetry=e+

 Vector   68  Occ=0.000000D+00  E= 1.313699D+00  Symmetry=e+

 Vector   69  Occ=0.000000D+00  E= 1.411920D+00  Symmetry=a

 Vector   70  Occ=0.000000D+00  E= 1.471789D+00  Symmetry=e+

 Vector   71  Occ=0.000000D+00  E= 1.471789D+00  Symmetry=e+

 Vector   72  Occ=0.000000D+00  E= 1.732454D+00  Symmetry=e+

 Vector   73  Occ=0.000000D+00  E= 1.732454D+00  Symmetry=e+

 Vector   74  Occ=0.000000D+00  E= 1.932446D+00  Symmetry=a

 Vector   75  Occ=0.000000D+00  E= 2.114539D+00  Symmetry=e+

 Vector   76  Occ=0.000000D+00  E= 2.114539D+00  Symmetry=e+

 Vector   77  Occ=0.000000D+00  E= 2.150720D+00  Symmetry=a

 Vector   78  Occ=0.000000D+00  E= 3.115267D+00  Symmetry=e+

 Vector   79  Occ=0.000000D+00  E= 3.115267D+00  Symmetry=e+

 Vector   80  Occ=0.000000D+00  E= 3.377826D+00  Symmetry=e+

 Vector   81  Occ=0.000000D+00  E= 3.377826D+00  Symmetry=e+

 Vector   82  Occ=0.000000D+00  E= 3.850386D+00  Symmetry=a

     Multipole analysis of the density
     ---------------------------------

     L   x y z        total         alpha         beta         nuclear
     -   - - -        -----         -----         ----         -------
     0   0 0 0     -0.000000    -33.000000    -33.000000     66.000000

     1   1 0 0     -0.000000     -0.000000     -0.000000     -0.000000
     1   0 1 0      0.000000      0.000000      0.000000      0.000000
     1   0 0 1     -0.150192     -0.708478     -0.708478      1.266765

     2   2 0 0    -34.398026   -142.801437   -142.801437    251.204848
     2   1 1 0     -0.000000     -0.000000     -0.000000     -0.000000
     2   1 0 1      0.000000      0.000000      0.000000      0.000000
     2   0 2 0    -34.398026   -142.801437   -142.801437    251.204848
     2   0 1 1      0.000000      0.000000      0.000000      0.000000

         Total DFT energy =    -1518.124187451238
         Total DFT energy =    -1518.124188095703
         Total DFT energy =    -1518.124187688335
         Total DFT energy =    -1518.124187744361
         Total DFT energy =    -1518.124179440350
         Total DFT energy =    -1518.124179021108
         Total DFT energy =    -1518.124200123034
         Total DFT energy =    -1518.124200198306
         Total DFT energy =    -1518.124200110385
         Total DFT energy =    -1518.124200193257
         Total DFT energy =    -1518.124181623026
         Total DFT energy =    -1518.124180881025
         Total DFT energy =    -1518.124195963796
         Total DFT energy =    -1518.124195930141
         Total DFT energy =    -1518.124199218322
         Total DFT energy =    -1518.124199252458
         Total DFT energy =    -1518.124201026017
         Total DFT energy =    -1518.124200750573
 Zero-Point correction to Energy  =    7.567 kcal/mol  (  0.012058 au)
 Thermal correction to Energy     =   10.719 kcal/mol  (  0.017082 au)
 Thermal correction to Enthalpy   =   11.311 kcal/mol  (  0.018025 au)
 Total Entropy                    =   73.324 cal/mol-K
   - Translational                =   40.614 cal/mol-K (mol. weight = 135.9050)
   - Rotational                   =   25.583 cal/mol-K (symmetry #  =        3)
   - Vibrational                  =    7.127 cal/mol-K
   - Translational                  =    2.979 cal/mol-K
   - Rotational                     =    2.979 cal/mol-K
   - Vibrational                    =   10.208 cal/mol-K
 P.Frequency       -0.00       -0.00       -0.00       -0.00        0.00        0.00
 P.Frequency      253.32      253.32      365.96      419.03      419.03      567.72
 P.Frequency      898.03      898.03     1221.04

 Normal Eigenvalue ||           Projected Infra Red Intensities
  Mode   [cm**-1]  || [atomic units] [(debye/angs)**2] [(KM/mol)] [arbitrary]
 ------ ---------- || -------------- ----------------- ---------- -----------
    1       -0.000 ||    0.000000           0.000         0.000       0.000
    2       -0.000 ||    0.000023           0.001         0.022       0.004
    3       -0.000 ||    0.000009           0.000         0.009       0.002
    4       -0.000 ||    0.000000           0.000         0.000       0.000
    5        0.000 ||    0.000023           0.001         0.023       0.004
    6        0.000 ||    0.000012           0.000         0.012       0.002
    7      253.320 ||    0.000005           0.000         0.005       0.001
    8      253.320 ||    0.000005           0.000         0.005       0.001
    9      365.963 ||    0.000110           0.003         0.108       0.020
   10      419.034 ||    0.000098           0.002         0.095       0.018
   11      419.034 ||    0.000098           0.002         0.095       0.018
   12      567.719 ||    0.003567           0.082         3.478       0.656
   13      898.034 ||    0.286703           6.614       279.493      52.685
   14      898.034 ||    0.286703           6.614       279.493      52.685
   15     1221.044 ||    0.238917           5.512       232.908      43.904
 ----------------------------------------------------------------------------

 Total times  cpu:      226.6s     wall:      200.9s
