============================== echo of input deck ==============================
ECHO

start molecule

#MEMORY
memory 3584 mb

#TITLE
title "CFCl4"

charge 0

#GEOMETRY
geometry units angstroms print xyz autosym
C          0.01249        0.78594        0.06926
Cl         1.79048        0.78594        0.06926
Cl        -0.58017        1.81550       -1.25361
F         -0.44802        1.27613        1.27601
Cl        -0.58017       -0.87448       -0.16093
end

BASIS "ao basis" SPHERICAL PRINT
#BASIS SET: (7s,4p,1d) -> [3s,2p,1d]
C    S
   1238.4016938              0.54568832082E-02
    186.29004992             0.40638409211E-01
     42.251176346            0.18025593888
     11.676557932            0.46315121755
      3.5930506482           0.44087173314
C    S
      0.40245147363          1.0000000
C    S
      0.13090182668          1.0000000
C    P
      9.4680970621           0.38387871728E-01
      2.0103545142           0.21117025112
      0.54771004707          0.51328172114
C    P
      0.15268613795          1.0000000
C    D
      0.8000000              1.0000000
#BASIS SET: (7s,4p,1d) -> [3s,2p,1d]
F    S
   2894.8325990             -0.53408255515E-02
    435.41939120            -0.39904258866E-01
     98.843328866           -0.17912768038
     27.485198001           -0.46758090825
      8.5405498171          -0.44653131020
F    S
      1.0654578038           1.0000000
F    S
      0.33247346748          1.0000000
F    P
     22.696633924           -0.45212874436E-01
      4.9872339257          -0.23754317067
      1.3491613954          -0.51287353587
F    P
      0.34829881977          1.0000000
F    D
      1.4000000              1.0000000
#BASIS SET: (10s,7p,1d) -> [4s,3p,1d]
Cl    S
  10449.8275660              0.19708362484E-02
   1571.7365221              0.14754727977E-01
    357.12065523             0.66679112875E-01
    100.25185935             0.17228924084
     30.812727554            0.15883786100
Cl    S
     51.923789434           -0.10009298909
      5.7045760975           0.60841752753
      2.3508376809           0.54352153355
Cl    S
      0.44605124672          1.0000000
Cl    S
      0.16848856190          1.0000000
Cl    P
    307.66790569            -0.87801484118E-02
     72.102015515           -0.63563355471E-01
     22.532680262           -0.24016428276
      7.8991765444          -0.47798866557
      2.8767268321          -0.38515850005
Cl    P
      0.77459363955          1.0000000
Cl    P
      0.21037699698          1.0000000
Cl    D
      0.6500000              1.0000000
END

#DFT
dft
  grid medium
  convergence energy 1e-07
  mult 1
  iterations 30
  xc m06-2x
end

#OPT
driver
  default
  maxiter 100
end

set driver:linopt 0

#TASK
task dft optimize
task dft freq numerical

================================================================================

         Total DFT energy =    -1517.895095085986
@ Step       Energy      Delta E   Gmax     Grms     Xrms     Xmax   Walltime
@ ---- ---------------- -------- -------- -------- -------- -------- --------
@    0   -1517.89509509  0.0D+00  0.04436  0.01506  0.00000  0.00000      5.5
         Total DFT energy =    -1517.898181730554
@    1   -1517.89818173 -3.1D-03  0.00458  0.00154  0.03518  0.11200     10.4
         Total DFT energy =    -1517.898216301840
@    2   -1517.89821630 -3.5D-05  0.00078  0.00026  0.00325  0.00895     14.8
         Total DFT energy =    -1517.898217016454
@    3   -1517.89821702 -7.1D-07  0.00003  0.00001  0.00047  0.00155     18.3
@    3   -1517.89821702 -7.1D-07  0.00003  0.00001  0.00047  0.00155     18.3

 Output coordinates in angstroms (scale by  1.889725989 to convert to a.u.)

  No.       Tag          Charge          X              Y              Z
 ---- ---------------- ---------- -------------- -------------- --------------
    1 C                    6.0000     0.00000000    -0.00000000     0.26245582
    2 Cl                  17.0000    -0.11546734    -1.67243733    -0.29962411
    3 Cl                  17.0000     1.50610689     0.73622101    -0.29962411
    4 F                    9.0000     0.00000000    -0.00000000     1.58783622
    5 Cl                  17.0000    -1.39063954     0.93621632    -0.29962411

         Total DFT energy =    -1517.898217048108

                       DFT Final Molecular Orbital Analysis
                       ------------------------------------

 Vector    1  Occ=2.000000D+00  E=-1.026700D+02  Symmetry=e+

 Vector    3  Occ=2.000000D+00  E=-1.026699D+02  Symmetry=a

 Vector    4  Occ=2.000000D+00  E=-2.530969D+01  Symmetry=a

 Vector    5  Occ=2.000000D+00  E=-1.081213D+01  Symmetry=a

 Vector    6  Occ=2.000000D+00  E=-9.841746D+00  Symmetry=e+

 Vector    7  Occ=2.000000D+00  E=-9.841746D+00  Symmetry=e+

 Vector    8  Occ=2.000000D+00  E=-9.841704D+00  Symmetry=a

 Vector    9  Occ=2.000000D+00  E=-7.568927D+00  Symmetry=e+

 Vector   10  Occ=2.000000D+00  E=-7.568927D+00  Symmetry=e+

 Vector   11  Occ=2.000000D+00  E=-7.568905D+00  Symmetry=a

 Vector   12  Occ=2.000000D+00  E=-7.561296D+00  Symmetry=e+

 Vector   13  Occ=2.000000D+00  E=-7.561296D+00  Symmetry=e+

 Vector   14  Occ=2.000000D+00  E=-7.561290D+00  Symmetry=a

 Vector   15  Occ=2.000000D+00  E=-7.561237D+00  Symmetry=a

 Vector   16  Occ=2.000000D+00  E=-7.561223D+00  Symmetry=e+

 Vector   17  Occ=2.000000D+00  E=-7.561223D+00  Symmetry=e+

 Vector   18  Occ=2.000000D+00  E=-1.415661D+00  Symmetry=a

 Vector   19  Occ=2.000000D+00  E=-1.047625D+00  Symmetry=a

 Vector   20  Occ=2.000000D+00  E=-9.543687D-01  Symmetry=e+

 Vector   21  Occ=2.000000D+00  E=-9.543687D-01  Symmetry=e+

 Vector   22  Occ=2.000000D+00  E=-7.566800D-01  Symmetry=a

 Vector   23  Occ=2.000000D+00  E=-6.391143D-01  Symmetry=e+

 Vector   24  Occ=2.000000D+00  E=-6.391143D-01  Symmetry=e+

 Vector   25  Occ=2.000000D+00  E=-6.360022D-01  Symmetry=a

 Vector   26  Occ=2.000000D+00  E=-5.068515D-01  Symmetry=e+

 Vector   27  Occ=2.000000D+00  E=-5.068515D-01  Symmetry=e+

 Vector   28  Occ=2.000000D+00  E=-4.395283D-01  Symmetry=a

 Vector   29  Occ=2.000000D+00  E=-4.262793D-01  Symmetry=e+

 Vector   30  Occ=2.000000D+00  E=-4.262793D-01  Symmetry=e+

 Vector   31  Occ=2.000000D+00  E=-3.965261D-01  Symmetry=e+

 Vector   32  Occ=2.000000D+00  E=-3.965261D-01  Symmetry=e+

 Vector   33  Occ=2.000000D+00  E=-3.823124D-01  Symmetry=a

 Vector   34  Occ=0.000000D+00  E= 1.797135D-02  Symmetry=a

 Vector   35  Occ=0.000000D+00  E= 7.087266D-02  Symmetry=e+

 Vector   36  Occ=0.000000D+00  E= 7.087266D-02  Symmetry=e+

 Vector   37  Occ=0.000000D+00  E= 1.607975D-01  Symmetry=a

 Vector   38  Occ=0.000000D+00  E= 3.923617D-01  Symmetry=a

 Vector   39  Occ=0.000000D+00  E= 4.524397D-01  Symmetry=e+

 Vector   40  Occ=0.000000D+00  E= 4.524397D-01  Symmetry=e+

 Vector   41  Occ=0.000000D+00  E= 5.104498D-01  Symmetry=a

 Vector   42  Occ=0.000000D+00  E= 5.722863D-01  Symmetry=e+

 Vector   43  Occ=0.000000D+00  E= 5.722863D-01  Symmetry=e+

 Vector   44  Occ=0.000000D+00  E= 6.714971D-01  Symmetry=a

 Vector   45  Occ=0.000000D+00  E= 7.087543D-01  Symmetry=e+

 Vector   46  Occ=0.000000D+00  E= 7.087543D-01  Symmetry=e+

 Vector   47  Occ=0.000000D+00  E= 7.697390D-01  Symmetry=a

 Vector   48  Occ=0.000000D+00  E= 7.714581D-01  Symmetry=e+

 Vector   49  Occ=0.000000D+00  E= 7.714581D-01  Symmetry=e+

 Vector   50  Occ=0.000000D+00  E= 7.945896D-01  Symmetry=a

 Vector   51  Occ=0.000000D+00  E= 8.028081D-01  Symmetry=e+

 Vector   52  Occ=0.000000D+00  E= 8.028081D-01  Symmetry=e+

 Vector   53  Occ=0.000000D+00  E= 8.149859D-01  Symmetry=a

 Vector   54  Occ=0.000000D+00  E= 8.204066D-01  Symmetry=e+

 Vector   55  Occ=0.000000D+00  E= 8.204066D-01  Symmetry=e+

 Vector   56  Occ=0.000000D+00  E= 8.286281D-01  Symmetry=a

 Vector   57  Occ=0.000000D+00  E= 8.663765D-01  Symmetry=a

 Vector   58  Occ=0.000000D+00  E= 8.664643D-01  Symmetry=e+

 Vector   59  Occ=0.000000D+00  E= 8.664643D-01  Symmetry=e+

 Vector   60  Occ=0.000000D+00  E= 9.062623D-01  Symmetry=e+

 Vector   61  Occ=0.000000D+00  E= 9.062623D-01  Symmetry=e+

 Vector   62  Occ=0.000000D+00  E= 1.067281D+00  Symmetry=a

 Vector   63  Occ=0.000000D+00  E= 1.090023D+00  Symmetry=a

 Vector   64  Occ=0.000000D+00  E= 1.127168D+00  Symmetry=e+

 Vector   65  Occ=0.000000D+00  E= 1.127168D+00  Symmetry=e+

 Vector   66  Occ=0.000000D+00  E= 1.287779D+00  Symmetry=a

 Vector   67  Occ=0.000000D+00  E= 1.295479D+00  Symmetry=e+

 Vector   68  Occ=0.000000D+00  E= 1.295479D+00  Symmetry=e+

 Vector   69  Occ=0.000000D+00  E= 1.398547D+00  Symmetry=a

 Vector   70  Occ=0.000000D+00  E= 1.461970D+00  Symmetry=e+

 Vector   71  Occ=0.000000D+00  E= 1.461970D+00  Symmetry=e+

 Vector   72  Occ=0.000000D+00  E= 1.722793D+00  Symmetry=e+

 Vector   73  Occ=0.000000D+00  E= 1.722793D+00  Symmetry=e+

 Vector   74  Occ=0.000000D+00  E= 1.920460D+00  Symmetry=a

 Vector   75  Occ=0.000000D+00  E= 2.082077D+00  Symmetry=e+

 Vector   76  Occ=0.000000D+00  E= 2.082077D+00  Symmetry=e+

 Vector   77  Occ=0.000000D+00  E= 2.128674D+00  Symmetry=a

 Vector   78  Occ=0.000000D+00  E= 3.108736D+00  Symmetry=e+

 Vector   79  Occ=0.000000D+00  E= 3.108736D+00  Symmetry=e+

 Vector   80  Occ=0.000000D+00  E= 3.359906D+00  Symmetry=e+

 Vector   81  Occ=0.000000D+00  E= 3.359906D+00  Symmetry=e+

 Vector   82  Occ=0.000000D+00  E= 3.814805D+00  Symmetry=a

     Multipole analysis of the density
     ---------------------------------

     L   x y z        total         alpha         beta         nuclear
     -   - - -        -----         -----         ----         -------
     0   0 0 0     -0.000000    -33.000000    -33.000000     66.000000

     1   1 0 0      0.000000      0.000000      0.000000      0.000000
     1   0 1 0     -0.000000     -0.000000     -0.000000     -0.000000
     1   0 0 1     -0.141145     -0.622780     -0.622780      1.104414

     2   2 0 0    -34.591719   -145.255437   -145.255437    255.919156
     2   1 1 0     -0.000000     -0.000000     -0.000000      0.000000
     2   1 0 1      0.000000      0.000000      0.000000      0.000000
     2   0 2 0    -34.591719   -145.255437   -145.255437    255.919156
     2   0 1 1     -0.000000     -0.000000     -0.000000      0.000000

         Total DFT energy =    -1517.898215219283
         Total DFT energy =    -1517.898214879966
         Total DFT energy =    -1517.898215208730
         Total DFT energy =    -1517.898214806429
         Total DFT energy =    -1517.898206186765
         Total DFT energy =    -1517.898207945210
         Total DFT energy =    -1517.898226707286
         Total DFT energy =    -1517.898226411548
         Total DFT energy =    -1517.898226475142
         Total DFT energy =    -1517.898226612711
         Total DFT energy =    -1517.898207622617
         Total DFT energy =    -1517.898208522288
         Total DFT energy =    -1517.898222196864
         Total DFT energy =    -1517.898223217591
         Total DFT energy =    -1517.898226296177
         Total DFT energy =    -1517.898225288847
         Total DFT energy =    -1517.898228109726
         Total DFT energy =    -1517.898226547792
 Zero-Point correction to Energy  =    7.419 kcal/mol  (  0.011822 au)
 Thermal correction to Energy     =   10.600 kcal/mol  (  0.016892 au)
 Thermal correction to Enthalpy   =   11.192 kcal/mol  (  0.017836 au)
 Total Entropy                    =   73.540 cal/mol-K
   - Translational                =   40.614 cal/mol-K (mol. weight = 135.9050)
   - Rotational                   =   25.636 cal/mol-K (symmetry #  =        3)
   - Vibrational                  =    7.290 cal/mol-K
   - Translational                  =    2.979 cal/mol-K
   - Rotational                     =    2.979 cal/mol-K
   - Vibrational                    =   10.372 cal/mol-K
 P.Frequency       -0.00       -0.00       -0.00       -0.00        0.00        0.00
 P.Frequency      251.29      251.29      361.34      411.48      411.48      552.95
 P.Frequency      871.43      871.43     1209.24

 Normal Eigenvalue ||           Projected Infra Red Intensities
  Mode   [cm**-1]  || [atomic units] [(debye/angs)**2] [(KM/mol)] [arbitrary]
 ------ ---------- || -------------- ----------------- ---------- -----------
    1       -0.000 ||    0.000000           0.000         0.000       0.000
    2       -0.000 ||    0.000019           0.000         0.019       0.004
    3       -0.000 ||    0.000019           0.000         0.018       0.004
    4       -0.000 ||    0.000000           0.000         0.000       0.000
    5        0.000 ||    0.000009           0.000         0.009       0.002
    6        0.000 ||    0.000009           0.000         0.009       0.002
    7      251.294 ||    0.000002           0.000         0.002       0.000
    8      251.294 ||    0.000002           0.000         0.002       0.000
    9      361.336 ||    0.000041           0.001         0.040       0.008
   10      411.477 ||    0.000008           0.000         0.008       0.002
   11      411.477 ||    0.000008           0.000         0.008       0.002
   12      552.953 ||    0.003471           0.080         3.384       0.654
   13      871.428 ||    0.281057           6.484       273.988      52.923
   14      871.428 ||    0.281057           6.484       273.988      52.923
   15     1209.237 ||    0.230904           5.327       225.097      43.479
 ----------------------------------------------------------------------------

 Total times  cpu:      215.8s     wall:      182.4s
