============================== echo of input deck ==============================
ECHO

start molecule

#MEMORY
memory 3584 mb

#TITLE
title "CFCl4"

charge 0

#GEOMETRY
geometry units angstroms print xyz autosym
C          0.01249        0.78594        0.06926
Cl         1.79048        0.78594        0.06926
Cl        -0.58017        1.81550       -1.25361
F         -0.44802        1.27613        1.27601
Cl        -0.58017       -0.87448       -0.16093
end

BASIS "ao basis" SPHERICAL PRINT
#BASIS SET: (7s,4p,1d) -> [3s,2p,1d]
C    S
   1238.4016938              0.54568832082E-02
    186.29004992             0.40638409211E-01
     42.251176346            0.18025593888
     11.676557932            0.46315121755
      3.5930506482           0.44087173314
C    S
      0.40245147363          1.0000000
C    S
      0.13090182668          1.0000000
C    P
      9.4680970621           0.38387871728E-01
      2.0103545142           0.21117025112
      0.54771004707          0.51328172114
C    P
      0.15268613795          1.0000000
C    D
      0.8000000              1.0000000
#BASIS SET: (7s,4p,1d) -> [3s,2p,1d]
F    S
   2894.8325990             -0.53408255515E-02
    435.41939120            -0.39904258866E-01
     98.843328866           -0.17912768038
     27.485198001           -0.46758090825
      8.5405498171          -0.44653131020
F    S
      1.0654578038           1.0000000
F    S
      0.33247346748          1.0000000
F    P
     22.696633924           -0.45212874436E-01
      4.9872339257          -0.23754317067
      1.3491613954          -0.51287353587
F    P
      0.34829881977          1.0000000
F    D
      1.4000000              1.0000000
#BASIS SET: (10s,7p,1d) -> [4s,3p,1d]
Cl    S
  10449.8275660              0.19708362484E-02
   1571.7365221              0.14754727977E-01
    357.12065523             0.66679112875E-01
    100.25185935             0.17228924084
     30.812727554            0.15883786100
Cl    S
     51.923789434           -0.10009298909
      5.7045760975           0.60841752753
      2.3508376809           0.54352153355
Cl    S
      0.44605124672          1.0000000
Cl    S
      0.16848856190          1.0000000
Cl    P
    307.66790569            -0.87801484118E-02
     72.102015515           -0.63563355471E-01
     22.532680262           -0.24016428276
      7.8991765444          -0.47798866557
      2.8767268321          -0.38515850005
Cl    P
      0.77459363955          1.0000000
Cl    P
      0.21037699698          1.0000000
Cl    D
      0.6500000              1.0000000
END

#DFT
dft
  grid medium
  convergence energy 1e-07
  mult 1
  iterations 30
  xc optx lyp
end

#OPT
driver
  default
  maxiter 100
end

set driver:linopt 0

#TASK
task dft optimize
task dft freq numerical

================================================================================

         Total DFT energy =    -1518.003130698355
@ Step       Energy      Delta E   Gmax     Grms     Xrms     Xmax   Walltime
@ ---- ---------------- -------- -------- -------- -------- -------- --------
@    0   -1518.00313070  0.0D+00  0.02801  0.00941  0.00000  0.00000      4.3
         Total DFT energy =    -1518.004692179923
@    1   -1518.00469218 -1.6D-03  0.00381  0.00123  0.03085  0.08634      7.8
         Total DFT energy =    -1518.004716870955
@    2   -1518.00471687 -2.5D-05  0.00052  0.00017  0.00254  0.00766     11.2
         Total DFT energy =    -1518.004717235043
@    3   -1518.00471724 -3.6D-07  0.00000  0.00000  0.00041  0.00118     13.9
@    3   -1518.00471724 -3.6D-07  0.00000  0.00000  0.00041  0.00118     13.9

 Output coordinates in angstroms (scale by  1.889725989 to convert to a.u.)

  No.       Tag          Charge          X              Y              Z
 ---- ---------------- ---------- -------------- -------------- --------------
    1 C                    6.0000     0.00000000    -0.00000000     0.26550727
    2 Cl                  17.0000    -0.11658524    -1.68862902    -0.30560334
    3 Cl                  17.0000     1.52068825     0.74334873    -0.30560334
    4 F                    9.0000    -0.00000000     0.00000000     1.60272244
    5 Cl                  17.0000    -1.40410301     0.94528029    -0.30560334

         Total DFT energy =    -1518.004717314837

                       DFT Final Molecular Orbital Analysis
                       ------------------------------------

 Vector    1  Occ=2.000000D+00  E=-1.006620D+02  Symmetry=e+

 Vector    3  Occ=2.000000D+00  E=-1.006620D+02  Symmetry=a

 Vector    4  Occ=2.000000D+00  E=-2.432453D+01  Symmetry=a

 Vector    5  Occ=2.000000D+00  E=-1.015987D+01  Symmetry=a

 Vector    6  Occ=2.000000D+00  E=-9.235911D+00  Symmetry=e+

 Vector    7  Occ=2.000000D+00  E=-9.235911D+00  Symmetry=e+

 Vector    8  Occ=2.000000D+00  E=-9.235876D+00  Symmetry=a

 Vector    9  Occ=2.000000D+00  E=-7.063929D+00  Symmetry=e+

 Vector   10  Occ=2.000000D+00  E=-7.063929D+00  Symmetry=e+

 Vector   11  Occ=2.000000D+00  E=-7.063911D+00  Symmetry=a

 Vector   12  Occ=2.000000D+00  E=-7.050531D+00  Symmetry=e+

 Vector   13  Occ=2.000000D+00  E=-7.050531D+00  Symmetry=e+

 Vector   14  Occ=2.000000D+00  E=-7.050527D+00  Symmetry=a

 Vector   15  Occ=2.000000D+00  E=-7.050439D+00  Symmetry=a

 Vector   16  Occ=2.000000D+00  E=-7.050423D+00  Symmetry=e+

 Vector   17  Occ=2.000000D+00  E=-7.050423D+00  Symmetry=e+

 Vector   18  Occ=2.000000D+00  E=-1.171634D+00  Symmetry=a

 Vector   19  Occ=2.000000D+00  E=-8.578557D-01  Symmetry=a

 Vector   20  Occ=2.000000D+00  E=-7.772927D-01  Symmetry=e+

 Vector   21  Occ=2.000000D+00  E=-7.772927D-01  Symmetry=e+

 Vector   22  Occ=2.000000D+00  E=-5.984003D-01  Symmetry=a

 Vector   23  Occ=2.000000D+00  E=-5.028547D-01  Symmetry=a

 Vector   24  Occ=2.000000D+00  E=-4.855792D-01  Symmetry=e+

 Vector   25  Occ=2.000000D+00  E=-4.855792D-01  Symmetry=e+

 Vector   26  Occ=2.000000D+00  E=-3.734899D-01  Symmetry=e+

 Vector   27  Occ=2.000000D+00  E=-3.734899D-01  Symmetry=e+

 Vector   28  Occ=2.000000D+00  E=-3.210323D-01  Symmetry=a

 Vector   29  Occ=2.000000D+00  E=-3.119859D-01  Symmetry=e+

 Vector   30  Occ=2.000000D+00  E=-3.119859D-01  Symmetry=e+

 Vector   31  Occ=2.000000D+00  E=-2.834724D-01  Symmetry=e+

 Vector   32  Occ=2.000000D+00  E=-2.834724D-01  Symmetry=e+

 Vector   33  Occ=2.000000D+00  E=-2.708020D-01  Symmetry=a

 Vector   34  Occ=0.000000D+00  E=-6.546870D-02  Symmetry=a

 Vector   35  Occ=0.000000D+00  E=-1.242667D-02  Symmetry=e+

 Vector   36  Occ=0.000000D+00  E=-1.242667D-02  Symmetry=e+

 Vector   37  Occ=0.000000D+00  E= 6.771784D-02  Symmetry=a

 Vector   38  Occ=0.000000D+00  E= 3.331032D-01  Symmetry=a

 Vector   39  Occ=0.000000D+00  E= 3.784095D-01  Symmetry=e+

 Vector   40  Occ=0.000000D+00  E= 3.784095D-01  Symmetry=e+

 Vector   41  Occ=0.000000D+00  E= 4.123078D-01  Symmetry=a

 Vector   42  Occ=0.000000D+00  E= 4.980675D-01  Symmetry=e+

 Vector   43  Occ=0.000000D+00  E= 4.980675D-01  Symmetry=e+

 Vector   44  Occ=0.000000D+00  E= 5.977814D-01  Symmetry=a

 Vector   45  Occ=0.000000D+00  E= 5.980385D-01  Symmetry=e+

 Vector   46  Occ=0.000000D+00  E= 5.980385D-01  Symmetry=e+

 Vector   47  Occ=0.000000D+00  E= 6.540344D-01  Symmetry=a

 Vector   48  Occ=0.000000D+00  E= 6.662506D-01  Symmetry=e+

 Vector   49  Occ=0.000000D+00  E= 6.662506D-01  Symmetry=e+

 Vector   50  Occ=0.000000D+00  E= 6.842484D-01  Symmetry=e+

 Vector   51  Occ=0.000000D+00  E= 6.842484D-01  Symmetry=e+

 Vector   52  Occ=0.000000D+00  E= 6.854801D-01  Symmetry=a

 Vector   53  Occ=0.000000D+00  E= 6.913311D-01  Symmetry=a

 Vector   54  Occ=0.000000D+00  E= 7.012603D-01  Symmetry=e+

 Vector   55  Occ=0.000000D+00  E= 7.012603D-01  Symmetry=e+

 Vector   56  Occ=0.000000D+00  E= 7.184352D-01  Symmetry=a

 Vector   57  Occ=0.000000D+00  E= 7.731803D-01  Symmetry=e+

 Vector   58  Occ=0.000000D+00  E= 7.731803D-01  Symmetry=e+

 Vector   59  Occ=0.000000D+00  E= 7.733001D-01  Symmetry=a

 Vector   60  Occ=0.000000D+00  E= 8.127278D-01  Symmetry=e+

 Vector   61  Occ=0.000000D+00  E= 8.127278D-01  Symmetry=e+

 Vector   62  Occ=0.000000D+00  E= 9.737343D-01  Symmetry=a

 Vector   63  Occ=0.000000D+00  E= 9.810334D-01  Symmetry=a

 Vector   64  Occ=0.000000D+00  E= 1.024119D+00  Symmetry=e+

 Vector   65  Occ=0.000000D+00  E= 1.024119D+00  Symmetry=e+

 Vector   66  Occ=0.000000D+00  E= 1.181340D+00  Symmetry=a

 Vector   67  Occ=0.000000D+00  E= 1.184462D+00  Symmetry=e+

 Vector   68  Occ=0.000000D+00  E= 1.184462D+00  Symmetry=e+

 Vector   69  Occ=0.000000D+00  E= 1.290276D+00  Symmetry=a

 Vector   70  Occ=0.000000D+00  E= 1.338555D+00  Symmetry=e+

 Vector   71  Occ=0.000000D+00  E= 1.338555D+00  Symmetry=e+

 Vector   72  Occ=0.000000D+00  E= 1.606377D+00  Symmetry=e+

 Vector   73  Occ=0.000000D+00  E= 1.606377D+00  Symmetry=e+

 Vector   74  Occ=0.000000D+00  E= 1.815007D+00  Symmetry=a

 Vector   75  Occ=0.000000D+00  E= 1.978346D+00  Symmetry=a

 Vector   76  Occ=0.000000D+00  E= 1.989264D+00  Symmetry=e+

 Vector   77  Occ=0.000000D+00  E= 1.989264D+00  Symmetry=e+

 Vector   78  Occ=0.000000D+00  E= 2.916908D+00  Symmetry=e+

 Vector   79  Occ=0.000000D+00  E= 2.916908D+00  Symmetry=e+

 Vector   80  Occ=0.000000D+00  E= 3.159182D+00  Symmetry=e+

 Vector   81  Occ=0.000000D+00  E= 3.159182D+00  Symmetry=e+

 Vector   82  Occ=0.000000D+00  E= 3.623958D+00  Symmetry=a

     Multipole analysis of the density
     ---------------------------------

     L   x y z        total         alpha         beta         nuclear
     -   - - -        -----         -----         ----         -------
     0   0 0 0     -0.000000    -33.000000    -33.000000     66.000000

     1   1 0 0      0.000000      0.000000      0.000000     -0.000000
     1   0 1 0     -0.000000     -0.000000     -0.000000     -0.000000
     1   0 0 1     -0.074135     -0.445036     -0.445036      0.815937

     2   2 0 0    -34.308867   -147.603685   -147.603685    260.898503
     2   1 1 0      0.000000      0.000000      0.000000      0.000000
     2   1 0 1      0.000000     -0.000000     -0.000000      0.000000
     2   0 2 0    -34.308867   -147.603685   -147.603685    260.898503
     2   0 1 1     -0.000000     -0.000000     -0.000000     -0.000000

         Total DFT energy =    -1518.004702429507
         Total DFT energy =    -1518.004702546977
         Total DFT energy =    -1518.004702464210
         Total DFT energy =    -1518.004702521000
         Total DFT energy =    -1518.004695151476
         Total DFT energy =    -1518.004695376866
         Total DFT energy =    -1518.004711687926
         Total DFT energy =    -1518.004711717441
         Total DFT energy =    -1518.004711693113
         Total DFT energy =    -1518.004711696400
         Total DFT energy =    -1518.004696592538
         Total DFT energy =    -1518.004696022434
         Total DFT energy =    -1518.004708879016
         Total DFT energy =    -1518.004708806478
         Total DFT energy =    -1518.004711288392
         Total DFT energy =    -1518.004711314777
         Total DFT energy =    -1518.004712430319
         Total DFT energy =    -1518.004712546960
 Zero-Point correction to Energy  =    6.868 kcal/mol  (  0.010945 au)
 Thermal correction to Energy     =   10.159 kcal/mol  (  0.016190 au)
 Thermal correction to Enthalpy   =   10.752 kcal/mol  (  0.017134 au)
 Total Entropy                    =   74.260 cal/mol-K
   - Translational                =   40.614 cal/mol-K (mol. weight = 135.9050)
   - Rotational                   =   25.695 cal/mol-K (symmetry #  =        3)
   - Vibrational                  =    7.951 cal/mol-K
   - Translational                  =    2.979 cal/mol-K
   - Rotational                     =    2.979 cal/mol-K
   - Vibrational                    =   10.949 cal/mol-K
 P.Frequency       -0.00        0.00        0.00        0.00        0.00        0.00
 P.Frequency      237.14      237.14      342.84      389.21      389.21      519.69
 P.Frequency      790.77      790.77     1109.76

 Normal Eigenvalue ||           Projected Infra Red Intensities
  Mode   [cm**-1]  || [atomic units] [(debye/angs)**2] [(KM/mol)] [arbitrary]
 ------ ---------- || -------------- ----------------- ---------- -----------
    1       -0.000 ||    0.000002           0.000         0.002       0.000
    2        0.000 ||    0.000003           0.000         0.003       0.001
    3        0.000 ||    0.000003           0.000         0.003       0.001
    4        0.000 ||    0.000000           0.000         0.000       0.000
    5        0.000 ||    0.000000           0.000         0.000       0.000
    6        0.000 ||    0.000001           0.000         0.001       0.000
    7      237.136 ||    0.000001           0.000         0.001       0.000
    8      237.136 ||    0.000001           0.000         0.001       0.000
    9      342.843 ||    0.000004           0.000         0.004       0.001
   10      389.211 ||    0.001458           0.034         1.422       0.258
   11      389.211 ||    0.001458           0.034         1.422       0.258
   12      519.693 ||    0.005010           0.116         4.884       0.885
   13      790.769 ||    0.302813           6.986       295.197      53.506
   14      790.769 ||    0.302813           6.986       295.197      53.506
   15     1109.764 ||    0.235351           5.430       229.432      41.586
 ----------------------------------------------------------------------------

 Total times  cpu:      147.3s     wall:      126.0s
