============================== echo of input deck ==============================
ECHO

start molecule

#MEMORY
memory stack 3333 mb heap 167 mb global 1500 mb verify hardfail

#TITLE
title "XeF2"

charge 0

#GEOMETRY
geometry units angstroms print xyz autosym
Xe                    0.00000000     0.00000000     0.00000000
end

#BASIS
basis "ao basis" spherical print

#BASIS SET: (22s,16p,9d,2f) -> [15s,12p,6d,2f]
Xe   S
    896311.370071247            0.0018770
    398360.608920554            0.0003690
    177049.159520246            0.0047010
     78688.5153423317           0.0044430
     34972.6734854808           0.0157470
     15543.4104379914           0.0307460
      6908.18241688509          0.0751260
      3070.30329639337          0.1574360
Xe   S
      1364.57924284150          1.0000000
Xe   S
       606.479663485111         1.0000000
Xe   S
       269.546517104494         1.0000000
Xe   S
       119.798452046442         1.0000000
Xe   S
        53.2437564650852        1.0000000
Xe   S
        23.6638917622601        1.0000000
Xe   S
        10.5172852276711        1.0000000
Xe   S
         4.67434899007606       1.0000000
Xe   S
         2.07748844003381       1.0000000
Xe   S
         0.92332819557058       1.0000000
Xe   S
         0.41036808692026       1.0000000
Xe   S
         0.18238581640900       1.0000000
Xe   S
         0.08106036284845       1.0000000
Xe   S
         0.03602682793264       1.0000000
Xe   P
     12202.3605463664           0.0019390
      4880.94421854656          0.0034480
      1952.37768741863          0.0172330
       780.951074967450         0.0613790
       312.380429986980         0.1969910
Xe   P
       124.952171994792         1.0000000
Xe   P
        49.9808687979168        1.0000000
Xe   P
        19.9923475191667        1.0000000
Xe   P
         7.99693900766669       1.0000000
Xe   P
         3.19877560306668       1.0000000
Xe   P
         1.27951024122667       1.0000000
Xe   P
         0.51180409649067       1.0000000
Xe   P
         0.20472163859627       1.0000000
Xe   P
         0.08188865543851       1.0000000
Xe   P
         0.03275546217540       1.0000000
Xe   P
         0.01310218487016       1.0000000
Xe   D
       696.657557998873         0.0034520
       253.330021090499         0.0206390
        92.1200076692724        0.1124360
        33.4981846070081        0.3420710
Xe   D
        12.1811580389121        1.0000000
Xe   D
         4.42951201414984       1.0000000
Xe   D
         1.61073164150903       1.0000000
Xe   D
         0.58572059691238       1.0000000
Xe   D
         0.21298930796814       1.0000000
Xe   F
         0.98700000000000       1.0000000
Xe   F
         0.23200000000000       1.0000000
end

#RELATIVISTIC ZORA
relativistic
 zora on
 zora:cutoff_NMR 1d-8
 zora:cutoff 1d-30
 modelpotential 1
end

#DFT
dft
 odft
 mult 1
 iterations 100
 xc ssb-d
 grid medium
 convergence lshift 0. ncydp 0 dampon 1d99 dampoff 1d-4 damp 40
end
task dft

#PROPERTY NMR
property
shielding
end

#TASK
task dft property

================================================================================

 Output coordinates in angstroms (scale by  1.889725989 to convert to a.u.)

  No.       Tag          Charge          X              Y              Z
 ---- ---------------- ---------- -------------- -------------- --------------
    1 Xe                  54.0000     0.00000000     0.00000000     0.00000000

         Total DFT energy =    -7570.187715422558
         Total DFT energy =    -7570.187720378005

                    DFT Final Alpha Molecular Orbital Analysis
                    ------------------------------------------

 Vector    1  Occ=1.000000D+00  E=-1.261244D+03

 Vector   16  Occ=1.000000D+00  E=-5.266194D+00

 Vector   17  Occ=1.000000D+00  E=-5.266194D+00

 Vector   18  Occ=1.000000D+00  E=-5.266194D+00

 Vector   19  Occ=1.000000D+00  E=-2.236361D+00

 Vector   20  Occ=1.000000D+00  E=-2.236361D+00

 Vector   21  Occ=1.000000D+00  E=-2.236361D+00

 Vector   22  Occ=1.000000D+00  E=-2.236361D+00

 Vector   23  Occ=1.000000D+00  E=-2.236361D+00

 Vector   24  Occ=1.000000D+00  E=-7.242600D-01

 Vector   25  Occ=1.000000D+00  E=-3.077362D-01

 Vector   26  Occ=1.000000D+00  E=-3.077362D-01

 Vector   27  Occ=1.000000D+00  E=-3.077362D-01

 Vector   28  Occ=0.000000D+00  E=-1.356368D-02

 Vector   29  Occ=0.000000D+00  E= 1.416340D-02

 Vector   30  Occ=0.000000D+00  E= 1.416340D-02

 Vector   31  Occ=0.000000D+00  E= 1.416340D-02

 Vector   32  Occ=0.000000D+00  E= 7.581471D-02

 Vector   33  Occ=0.000000D+00  E= 7.581471D-02

 Vector   34  Occ=0.000000D+00  E= 7.581471D-02

 Vector   35  Occ=0.000000D+00  E= 2.058361D-01

 Vector   36  Occ=0.000000D+00  E= 2.058361D-01

 Vector   37  Occ=0.000000D+00  E= 2.058361D-01

 Vector   38  Occ=0.000000D+00  E= 2.058361D-01

 Vector   39  Occ=0.000000D+00  E= 2.058361D-01

 Vector   40  Occ=0.000000D+00  E= 2.158507D-01

 Vector   41  Occ=0.000000D+00  E= 3.148783D-01

 Vector   42  Occ=0.000000D+00  E= 3.148783D-01

 Vector   43  Occ=0.000000D+00  E= 3.148783D-01

 Vector   44  Occ=0.000000D+00  E= 5.359569D-01

 Vector   45  Occ=0.000000D+00  E= 5.359569D-01

 Vector   46  Occ=0.000000D+00  E= 5.359569D-01

 Vector   47  Occ=0.000000D+00  E= 5.359569D-01

 Vector   48  Occ=0.000000D+00  E= 5.359569D-01

 Vector   49  Occ=0.000000D+00  E= 5.359569D-01

 Vector   50  Occ=0.000000D+00  E= 5.359569D-01

 Vector   51  Occ=0.000000D+00  E= 9.843623D-01

 Vector   52  Occ=0.000000D+00  E= 1.249327D+00

 Vector   53  Occ=0.000000D+00  E= 1.249327D+00

 Vector   54  Occ=0.000000D+00  E= 1.249327D+00

 Vector   55  Occ=0.000000D+00  E= 1.445468D+00

 Vector   56  Occ=0.000000D+00  E= 1.445468D+00

 Vector   57  Occ=0.000000D+00  E= 1.445468D+00

 Vector   58  Occ=0.000000D+00  E= 1.445468D+00

 Vector   59  Occ=0.000000D+00  E= 1.445468D+00

 Vector   60  Occ=0.000000D+00  E= 1.755586D+00

 Vector   61  Occ=0.000000D+00  E= 1.755586D+00

 Vector   62  Occ=0.000000D+00  E= 1.755586D+00

 Vector   63  Occ=0.000000D+00  E= 1.755586D+00

 Vector   64  Occ=0.000000D+00  E= 1.755586D+00

 Vector   65  Occ=0.000000D+00  E= 1.755586D+00

 Vector   66  Occ=0.000000D+00  E= 1.755586D+00

 Vector   67  Occ=0.000000D+00  E= 3.776387D+00

 Vector   68  Occ=0.000000D+00  E= 5.367323D+00

 Vector   69  Occ=0.000000D+00  E= 5.367323D+00

 Vector   70  Occ=0.000000D+00  E= 5.367323D+00

 Vector   71  Occ=0.000000D+00  E= 7.221175D+00

 Vector   72  Occ=0.000000D+00  E= 7.221175D+00

 Vector   73  Occ=0.000000D+00  E= 7.221175D+00

 Vector   74  Occ=0.000000D+00  E= 7.221175D+00

 Vector   75  Occ=0.000000D+00  E= 7.221175D+00

 Vector   76  Occ=0.000000D+00  E= 1.533499D+01

 Vector   77  Occ=0.000000D+00  E= 2.784153D+01

 Vector   78  Occ=0.000000D+00  E= 2.784153D+01

 Vector   79  Occ=0.000000D+00  E= 2.784153D+01

 Vector   80  Occ=0.000000D+00  E= 3.789258D+01

 Vector   81  Occ=0.000000D+00  E= 3.789258D+01

 Vector   82  Occ=0.000000D+00  E= 3.789258D+01

 Vector   83  Occ=0.000000D+00  E= 3.789258D+01

 Vector   84  Occ=0.000000D+00  E= 3.789258D+01

 Vector   85  Occ=0.000000D+00  E= 6.562041D+01

 Vector   86  Occ=0.000000D+00  E= 1.401213D+02

 Vector   87  Occ=0.000000D+00  E= 1.401213D+02

 Vector   88  Occ=0.000000D+00  E= 1.401213D+02

 Vector   89  Occ=0.000000D+00  E= 2.592103D+02

 Vector   90  Occ=0.000000D+00  E= 6.521280D+02

 Vector   91  Occ=0.000000D+00  E= 6.521280D+02

 Vector   92  Occ=0.000000D+00  E= 6.521280D+02

 Vector   93  Occ=0.000000D+00  E= 8.980326D+02

 Vector   94  Occ=0.000000D+00  E= 2.757931D+03

 Vector   95  Occ=0.000000D+00  E= 1.036055D+04

      Atom:    1  Xe
           isotropic =    5657.6335
 Total times  cpu:       92.4s     wall:       88.3s
