============================== echo of input deck ==============================
ECHO

start molecule

#MEMORY
memory 3584 mb

#TITLE
title "CFCl4"

charge 0

#GEOMETRY
geometry units angstroms print xyz autosym
C          0.01249        0.78594        0.06926
Cl         1.79048        0.78594        0.06926
Cl        -0.58017        1.81550       -1.25361
F         -0.44802        1.27613        1.27601
Cl        -0.58017       -0.87448       -0.16093
end

BASIS "ao basis" SPHERICAL PRINT
#BASIS SET: (7s,4p,1d) -> [3s,2p,1d]
C    S
   1238.4016938              0.54568832082E-02
    186.29004992             0.40638409211E-01
     42.251176346            0.18025593888
     11.676557932            0.46315121755
      3.5930506482           0.44087173314
C    S
      0.40245147363          1.0000000
C    S
      0.13090182668          1.0000000
C    P
      9.4680970621           0.38387871728E-01
      2.0103545142           0.21117025112
      0.54771004707          0.51328172114
C    P
      0.15268613795          1.0000000
C    D
      0.8000000              1.0000000
#BASIS SET: (7s,4p,1d) -> [3s,2p,1d]
F    S
   2894.8325990             -0.53408255515E-02
    435.41939120            -0.39904258866E-01
     98.843328866           -0.17912768038
     27.485198001           -0.46758090825
      8.5405498171          -0.44653131020
F    S
      1.0654578038           1.0000000
F    S
      0.33247346748          1.0000000
F    P
     22.696633924           -0.45212874436E-01
      4.9872339257          -0.23754317067
      1.3491613954          -0.51287353587
F    P
      0.34829881977          1.0000000
F    D
      1.4000000              1.0000000
#BASIS SET: (10s,7p,1d) -> [4s,3p,1d]
Cl    S
  10449.8275660              0.19708362484E-02
   1571.7365221              0.14754727977E-01
    357.12065523             0.66679112875E-01
    100.25185935             0.17228924084
     30.812727554            0.15883786100
Cl    S
     51.923789434           -0.10009298909
      5.7045760975           0.60841752753
      2.3508376809           0.54352153355
Cl    S
      0.44605124672          1.0000000
Cl    S
      0.16848856190          1.0000000
Cl    P
    307.66790569            -0.87801484118E-02
     72.102015515           -0.63563355471E-01
     22.532680262           -0.24016428276
      7.8991765444          -0.47798866557
      2.8767268321          -0.38515850005
Cl    P
      0.77459363955          1.0000000
Cl    P
      0.21037699698          1.0000000
Cl    D
      0.6500000              1.0000000
END

#DFT
dft
  grid medium
  convergence energy 1e-07
  mult 1
  iterations 30
  xc bb1k
end

#OPT
driver
  default
  maxiter 100
end

set driver:linopt 0

#TASK
task dft optimize
task dft freq numerical

================================================================================

         Total DFT energy =    -1518.107525705687
@ Step       Energy      Delta E   Gmax     Grms     Xrms     Xmax   Walltime
@ ---- ---------------- -------- -------- -------- -------- -------- --------
@    0   -1518.10752571  0.0D+00  0.05144  0.01870  0.00000  0.00000      7.4
         Total DFT energy =    -1518.111583706364
@    1   -1518.11158371 -4.1D-03  0.01956  0.00688  0.06201  0.19346     14.8
         Total DFT energy =    -1518.112243730023
@    2   -1518.11224373 -6.6D-04  0.00258  0.00107  0.02816  0.07216     21.2
         Total DFT energy =    -1518.112270610299
@    3   -1518.11227061 -2.7D-05  0.00041  0.00017  0.00525  0.01099     28.2
         Total DFT energy =    -1518.112270900746
@    4   -1518.11227090 -2.9D-07  0.00014  0.00005  0.00042  0.00082     34.4
@    4   -1518.11227090 -2.9D-07  0.00014  0.00005  0.00042  0.00082     34.4

 Output coordinates in angstroms (scale by  1.889725989 to convert to a.u.)

  No.       Tag          Charge          X              Y              Z
 ---- ---------------- ---------- -------------- -------------- --------------
    1 C                    6.0000     0.00000000     0.00000000     0.26181385
    2 Cl                  17.0000    -0.11452994    -1.65885989    -0.29681333
    3 Cl                  17.0000     1.49387977     0.73024411    -0.29681333
    4 F                    9.0000     0.00000000     0.00000000     1.58004583
    5 Cl                  17.0000    -1.37934984     0.92861578    -0.29681333

         Total DFT energy =    -1518.112270945314

                       DFT Final Molecular Orbital Analysis
                       ------------------------------------

 Vector    1  Occ=2.000000D+00  E=-1.024473D+02  Symmetry=e+

 Vector    3  Occ=2.000000D+00  E=-1.024472D+02  Symmetry=a

 Vector    4  Occ=2.000000D+00  E=-2.519305D+01  Symmetry=a

 Vector    5  Occ=2.000000D+00  E=-1.073512D+01  Symmetry=a

 Vector    6  Occ=2.000000D+00  E=-9.795381D+00  Symmetry=e+

 Vector    7  Occ=2.000000D+00  E=-9.795381D+00  Symmetry=e+

 Vector    8  Occ=2.000000D+00  E=-9.795348D+00  Symmetry=a

 Vector    9  Occ=2.000000D+00  E=-7.485706D+00  Symmetry=e+

 Vector   10  Occ=2.000000D+00  E=-7.485706D+00  Symmetry=e+

 Vector   11  Occ=2.000000D+00  E=-7.485684D+00  Symmetry=a

 Vector   12  Occ=2.000000D+00  E=-7.476229D+00  Symmetry=e+

 Vector   13  Occ=2.000000D+00  E=-7.476229D+00  Symmetry=e+

 Vector   14  Occ=2.000000D+00  E=-7.476223D+00  Symmetry=a

 Vector   15  Occ=2.000000D+00  E=-7.476153D+00  Symmetry=a

 Vector   16  Occ=2.000000D+00  E=-7.476137D+00  Symmetry=e+

 Vector   17  Occ=2.000000D+00  E=-7.476137D+00  Symmetry=e+

 Vector   18  Occ=2.000000D+00  E=-1.392093D+00  Symmetry=a

 Vector   19  Occ=2.000000D+00  E=-1.032442D+00  Symmetry=a

 Vector   20  Occ=2.000000D+00  E=-9.374052D-01  Symmetry=e+

 Vector   21  Occ=2.000000D+00  E=-9.374052D-01  Symmetry=e+

 Vector   22  Occ=2.000000D+00  E=-7.340082D-01  Symmetry=a

 Vector   23  Occ=2.000000D+00  E=-6.200447D-01  Symmetry=a

 Vector   24  Occ=2.000000D+00  E=-6.175092D-01  Symmetry=e+

 Vector   25  Occ=2.000000D+00  E=-6.175092D-01  Symmetry=e+

 Vector   26  Occ=2.000000D+00  E=-4.891894D-01  Symmetry=e+

 Vector   27  Occ=2.000000D+00  E=-4.891894D-01  Symmetry=e+

 Vector   28  Occ=2.000000D+00  E=-4.215068D-01  Symmetry=a

 Vector   29  Occ=2.000000D+00  E=-4.087595D-01  Symmetry=e+

 Vector   30  Occ=2.000000D+00  E=-4.087595D-01  Symmetry=e+

 Vector   31  Occ=2.000000D+00  E=-3.768751D-01  Symmetry=e+

 Vector   32  Occ=2.000000D+00  E=-3.768751D-01  Symmetry=e+

 Vector   33  Occ=2.000000D+00  E=-3.617965D-01  Symmetry=a

 Vector   34  Occ=0.000000D+00  E= 1.288512D-02  Symmetry=a

 Vector   35  Occ=0.000000D+00  E= 6.560408D-02  Symmetry=e+

 Vector   36  Occ=0.000000D+00  E= 6.560408D-02  Symmetry=e+

 Vector   37  Occ=0.000000D+00  E= 1.541724D-01  Symmetry=a

 Vector   38  Occ=0.000000D+00  E= 3.857777D-01  Symmetry=a

 Vector   39  Occ=0.000000D+00  E= 4.401441D-01  Symmetry=e+

 Vector   40  Occ=0.000000D+00  E= 4.401441D-01  Symmetry=e+

 Vector   41  Occ=0.000000D+00  E= 5.071909D-01  Symmetry=a

 Vector   42  Occ=0.000000D+00  E= 5.701690D-01  Symmetry=e+

 Vector   43  Occ=0.000000D+00  E= 5.701690D-01  Symmetry=e+

 Vector   44  Occ=0.000000D+00  E= 6.674533D-01  Symmetry=a

 Vector   45  Occ=0.000000D+00  E= 6.896815D-01  Symmetry=e+

 Vector   46  Occ=0.000000D+00  E= 6.896815D-01  Symmetry=e+

 Vector   47  Occ=0.000000D+00  E= 7.562303D-01  Symmetry=a

 Vector   48  Occ=0.000000D+00  E= 7.622648D-01  Symmetry=e+

 Vector   49  Occ=0.000000D+00  E= 7.622648D-01  Symmetry=e+

 Vector   50  Occ=0.000000D+00  E= 7.830018D-01  Symmetry=a

 Vector   51  Occ=0.000000D+00  E= 7.868892D-01  Symmetry=e+

 Vector   52  Occ=0.000000D+00  E= 7.868892D-01  Symmetry=e+

 Vector   53  Occ=0.000000D+00  E= 7.972001D-01  Symmetry=a

 Vector   54  Occ=0.000000D+00  E= 8.150608D-01  Symmetry=e+

 Vector   55  Occ=0.000000D+00  E= 8.150608D-01  Symmetry=e+

 Vector   56  Occ=0.000000D+00  E= 8.310339D-01  Symmetry=a

 Vector   57  Occ=0.000000D+00  E= 8.664379D-01  Symmetry=e+

 Vector   58  Occ=0.000000D+00  E= 8.664379D-01  Symmetry=e+

 Vector   59  Occ=0.000000D+00  E= 8.691383D-01  Symmetry=a

 Vector   60  Occ=0.000000D+00  E= 9.095256D-01  Symmetry=e+

 Vector   61  Occ=0.000000D+00  E= 9.095256D-01  Symmetry=e+

 Vector   62  Occ=0.000000D+00  E= 1.080665D+00  Symmetry=a

 Vector   63  Occ=0.000000D+00  E= 1.085300D+00  Symmetry=a

 Vector   64  Occ=0.000000D+00  E= 1.133164D+00  Symmetry=e+

 Vector   65  Occ=0.000000D+00  E= 1.133164D+00  Symmetry=e+

 Vector   66  Occ=0.000000D+00  E= 1.291428D+00  Symmetry=a

 Vector   67  Occ=0.000000D+00  E= 1.306561D+00  Symmetry=e+

 Vector   68  Occ=0.000000D+00  E= 1.306561D+00  Symmetry=e+

 Vector   69  Occ=0.000000D+00  E= 1.405191D+00  Symmetry=a

 Vector   70  Occ=0.000000D+00  E= 1.464566D+00  Symmetry=e+

 Vector   71  Occ=0.000000D+00  E= 1.464566D+00  Symmetry=e+

 Vector   72  Occ=0.000000D+00  E= 1.725192D+00  Symmetry=e+

 Vector   73  Occ=0.000000D+00  E= 1.725192D+00  Symmetry=e+

 Vector   74  Occ=0.000000D+00  E= 1.928184D+00  Symmetry=a

 Vector   75  Occ=0.000000D+00  E= 2.107022D+00  Symmetry=e+

 Vector   76  Occ=0.000000D+00  E= 2.107022D+00  Symmetry=e+

 Vector   77  Occ=0.000000D+00  E= 2.140784D+00  Symmetry=a

 Vector   78  Occ=0.000000D+00  E= 3.106284D+00  Symmetry=e+

 Vector   79  Occ=0.000000D+00  E= 3.106284D+00  Symmetry=e+

 Vector   80  Occ=0.000000D+00  E= 3.367131D+00  Symmetry=e+

 Vector   81  Occ=0.000000D+00  E= 3.367131D+00  Symmetry=e+

 Vector   82  Occ=0.000000D+00  E= 3.839019D+00  Symmetry=a

     Multipole analysis of the density
     ---------------------------------

     L   x y z        total         alpha         beta         nuclear
     -   - - -        -----         -----         ----         -------
     0   0 0 0     -0.000000    -33.000000    -33.000000     66.000000

     1   1 0 0     -0.000000     -0.000000     -0.000000     -0.000000
     1   0 1 0      0.000000      0.000000      0.000000      0.000000
     1   0 0 1     -0.146470     -0.691001     -0.691001      1.235533

     2   2 0 0    -34.406448   -143.093593   -143.093593    251.780738
     2   1 1 0     -0.000000     -0.000000     -0.000000     -0.000000
     2   1 0 1      0.000000      0.000000      0.000000      0.000000
     2   0 2 0    -34.406448   -143.093593   -143.093593    251.780738
     2   0 1 1     -0.000000     -0.000000     -0.000000      0.000000

         Total DFT energy =    -1518.112270741087
         Total DFT energy =    -1518.112271380935
         Total DFT energy =    -1518.112270979728
         Total DFT energy =    -1518.112271032380
         Total DFT energy =    -1518.112261542939
         Total DFT energy =    -1518.112265469566
         Total DFT energy =    -1518.112283214881
         Total DFT energy =    -1518.112283297774
         Total DFT energy =    -1518.112283212399
         Total DFT energy =    -1518.112283285455
         Total DFT energy =    -1518.112266294117
         Total DFT energy =    -1518.112262803422
         Total DFT energy =    -1518.112278851635
         Total DFT energy =    -1518.112279399265
         Total DFT energy =    -1518.112282534539
         Total DFT energy =    -1518.112282189002
         Total DFT energy =    -1518.112284059314
         Total DFT energy =    -1518.112283911333
 Zero-Point correction to Energy  =    7.526 kcal/mol  (  0.011994 au)
 Thermal correction to Energy     =   10.686 kcal/mol  (  0.017029 au)
 Thermal correction to Enthalpy   =   11.278 kcal/mol  (  0.017973 au)
 Total Entropy                    =   73.377 cal/mol-K
   - Translational                =   40.614 cal/mol-K (mol. weight = 135.9050)
   - Rotational                   =   25.590 cal/mol-K (symmetry #  =        3)
   - Vibrational                  =    7.173 cal/mol-K
   - Translational                  =    2.979 cal/mol-K
   - Rotational                     =    2.979 cal/mol-K
   - Vibrational                    =   10.249 cal/mol-K
 P.Frequency       -0.00       -0.00       -0.00       -0.00        0.00        0.00
 P.Frequency      252.28      252.28      364.48      417.30      417.30      564.90
 P.Frequency      891.81      891.81     1214.98

 Normal Eigenvalue ||           Projected Infra Red Intensities
  Mode   [cm**-1]  || [atomic units] [(debye/angs)**2] [(KM/mol)] [arbitrary]
 ------ ---------- || -------------- ----------------- ---------- -----------
    1       -0.000 ||    0.000009           0.000         0.008       0.002
    2       -0.000 ||    0.000000           0.000         0.000       0.000
    3       -0.000 ||    0.000012           0.000         0.012       0.002
    4       -0.000 ||    0.000022           0.001         0.021       0.004
    5        0.000 ||    0.000023           0.001         0.022       0.004
    6        0.000 ||    0.000000           0.000         0.000       0.000
    7      252.280 ||    0.000004           0.000         0.004       0.001
    8      252.280 ||    0.000004           0.000         0.004       0.001
    9      364.475 ||    0.000100           0.002         0.098       0.018
   10      417.303 ||    0.000063           0.001         0.062       0.012
   11      417.303 ||    0.000063           0.001         0.062       0.012
   12      564.904 ||    0.003641           0.084         3.549       0.668
   13      891.807 ||    0.287100           6.624       279.879      52.702
   14      891.807 ||    0.287100           6.624       279.879      52.702
   15     1214.980 ||    0.239004           5.514       232.993      43.873
 ----------------------------------------------------------------------------

 Total times  cpu:      269.6s     wall:      271.2s
