============================== echo of input deck ==============================
ECHO

start molecule

#MEMORY
memory 3584 mb

#TITLE
title "CFCl4"

charge 0

#GEOMETRY
geometry units angstroms print xyz autosym
C          0.01249        0.78594        0.06926
Cl         1.79048        0.78594        0.06926
Cl        -0.58017        1.81550       -1.25361
F         -0.44802        1.27613        1.27601
Cl        -0.58017       -0.87448       -0.16093
end

BASIS "ao basis" SPHERICAL PRINT
#BASIS SET: (7s,4p,1d) -> [3s,2p,1d]
C    S
   1238.4016938              0.54568832082E-02
    186.29004992             0.40638409211E-01
     42.251176346            0.18025593888
     11.676557932            0.46315121755
      3.5930506482           0.44087173314
C    S
      0.40245147363          1.0000000
C    S
      0.13090182668          1.0000000
C    P
      9.4680970621           0.38387871728E-01
      2.0103545142           0.21117025112
      0.54771004707          0.51328172114
C    P
      0.15268613795          1.0000000
C    D
      0.8000000              1.0000000
#BASIS SET: (7s,4p,1d) -> [3s,2p,1d]
F    S
   2894.8325990             -0.53408255515E-02
    435.41939120            -0.39904258866E-01
     98.843328866           -0.17912768038
     27.485198001           -0.46758090825
      8.5405498171          -0.44653131020
F    S
      1.0654578038           1.0000000
F    S
      0.33247346748          1.0000000
F    P
     22.696633924           -0.45212874436E-01
      4.9872339257          -0.23754317067
      1.3491613954          -0.51287353587
F    P
      0.34829881977          1.0000000
F    D
      1.4000000              1.0000000
#BASIS SET: (10s,7p,1d) -> [4s,3p,1d]
Cl    S
  10449.8275660              0.19708362484E-02
   1571.7365221              0.14754727977E-01
    357.12065523             0.66679112875E-01
    100.25185935             0.17228924084
     30.812727554            0.15883786100
Cl    S
     51.923789434           -0.10009298909
      5.7045760975           0.60841752753
      2.3508376809           0.54352153355
Cl    S
      0.44605124672          1.0000000
Cl    S
      0.16848856190          1.0000000
Cl    P
    307.66790569            -0.87801484118E-02
     72.102015515           -0.63563355471E-01
     22.532680262           -0.24016428276
      7.8991765444          -0.47798866557
      2.8767268321          -0.38515850005
Cl    P
      0.77459363955          1.0000000
Cl    P
      0.21037699698          1.0000000
Cl    D
      0.6500000              1.0000000
END

#DFT
dft
  grid medium
  convergence energy 1e-07
  mult 1
  iterations 30
  xc beckehandh lyp
end

#OPT
driver
  default
  maxiter 100
end

set driver:linopt 0

#TASK
task dft optimize
task dft freq numerical

================================================================================

         Total DFT energy =    -1516.554844041842
@ Step       Energy      Delta E   Gmax     Grms     Xrms     Xmax   Walltime
@ ---- ---------------- -------- -------- -------- -------- -------- --------
@    0   -1516.55484404  0.0D+00  0.07002  0.02761  0.00000  0.00000      4.3
         Total DFT energy =    -1516.564723910367
@    1   -1516.56472391 -9.9D-03  0.01122  0.00377  0.05510  0.14387      8.6
         Total DFT energy =    -1516.564890680466
@    2   -1516.56489068 -1.7D-04  0.00282  0.00092  0.01047  0.03034     12.8
         Total DFT energy =    -1516.564899084808
@    3   -1516.56489908 -8.4D-06  0.00015  0.00006  0.00176  0.00575     16.6
         Total DFT energy =    -1516.564899112707
@    4   -1516.56489911 -2.8D-08  0.00001  0.00000  0.00010  0.00018     19.7
@    4   -1516.56489911 -2.8D-08  0.00001  0.00000  0.00010  0.00018     19.7

 Output coordinates in angstroms (scale by  1.889725989 to convert to a.u.)

  No.       Tag          Charge          X              Y              Z
 ---- ---------------- ---------- -------------- -------------- --------------
    1 C                    6.0000    -0.00000000     0.00000000     0.25899298
    2 Cl                  17.0000    -0.11318232    -1.63934084    -0.28988561
    3 Cl                  17.0000     1.47630197     0.72165166    -0.28988561
    4 F                    9.0000     0.00000000     0.00000000     1.56208355
    5 Cl                  17.0000    -1.36311965     0.91768918    -0.28988561

         Total DFT energy =    -1516.564899113783

                       DFT Final Molecular Orbital Analysis
                       ------------------------------------

 Vector    1  Occ=2.000000D+00  E=-1.026067D+02  Symmetry=e+

 Vector    3  Occ=2.000000D+00  E=-1.026067D+02  Symmetry=a

 Vector    4  Occ=2.000000D+00  E=-2.528923D+01  Symmetry=a

 Vector    5  Occ=2.000000D+00  E=-1.080363D+01  Symmetry=a

 Vector    6  Occ=2.000000D+00  E=-9.921241D+00  Symmetry=e+

 Vector    7  Occ=2.000000D+00  E=-9.921241D+00  Symmetry=e+

 Vector    8  Occ=2.000000D+00  E=-9.921200D+00  Symmetry=a

 Vector    9  Occ=2.000000D+00  E=-7.593767D+00  Symmetry=e+

 Vector   10  Occ=2.000000D+00  E=-7.593767D+00  Symmetry=e+

 Vector   11  Occ=2.000000D+00  E=-7.593740D+00  Symmetry=a

 Vector   12  Occ=2.000000D+00  E=-7.585153D+00  Symmetry=e+

 Vector   13  Occ=2.000000D+00  E=-7.585153D+00  Symmetry=e+

 Vector   14  Occ=2.000000D+00  E=-7.585146D+00  Symmetry=a

 Vector   15  Occ=2.000000D+00  E=-7.585078D+00  Symmetry=a

 Vector   16  Occ=2.000000D+00  E=-7.585060D+00  Symmetry=e+

 Vector   17  Occ=2.000000D+00  E=-7.585060D+00  Symmetry=e+

 Vector   18  Occ=2.000000D+00  E=-1.468631D+00  Symmetry=a

 Vector   19  Occ=2.000000D+00  E=-1.101474D+00  Symmetry=a

 Vector   20  Occ=2.000000D+00  E=-9.995922D-01  Symmetry=e+

 Vector   21  Occ=2.000000D+00  E=-9.995922D-01  Symmetry=e+

 Vector   22  Occ=2.000000D+00  E=-7.869804D-01  Symmetry=a

 Vector   23  Occ=2.000000D+00  E=-6.723468D-01  Symmetry=e+

 Vector   24  Occ=2.000000D+00  E=-6.723468D-01  Symmetry=e+

 Vector   25  Occ=2.000000D+00  E=-6.694024D-01  Symmetry=a

 Vector   26  Occ=2.000000D+00  E=-5.359675D-01  Symmetry=e+

 Vector   27  Occ=2.000000D+00  E=-5.359675D-01  Symmetry=e+

 Vector   28  Occ=2.000000D+00  E=-4.627841D-01  Symmetry=a

 Vector   29  Occ=2.000000D+00  E=-4.487297D-01  Symmetry=e+

 Vector   30  Occ=2.000000D+00  E=-4.487297D-01  Symmetry=e+

 Vector   31  Occ=2.000000D+00  E=-4.140475D-01  Symmetry=e+

 Vector   32  Occ=2.000000D+00  E=-4.140475D-01  Symmetry=e+

 Vector   33  Occ=2.000000D+00  E=-3.975049D-01  Symmetry=a

 Vector   34  Occ=0.000000D+00  E= 2.180163D-02  Symmetry=a

 Vector   35  Occ=0.000000D+00  E= 7.224170D-02  Symmetry=e+

 Vector   36  Occ=0.000000D+00  E= 7.224170D-02  Symmetry=e+

 Vector   37  Occ=0.000000D+00  E= 1.621812D-01  Symmetry=a

 Vector   38  Occ=0.000000D+00  E= 3.752924D-01  Symmetry=a

 Vector   39  Occ=0.000000D+00  E= 4.337889D-01  Symmetry=e+

 Vector   40  Occ=0.000000D+00  E= 4.337889D-01  Symmetry=e+

 Vector   41  Occ=0.000000D+00  E= 5.145788D-01  Symmetry=a

 Vector   42  Occ=0.000000D+00  E= 5.679125D-01  Symmetry=e+

 Vector   43  Occ=0.000000D+00  E= 5.679125D-01  Symmetry=e+

 Vector   44  Occ=0.000000D+00  E= 6.633843D-01  Symmetry=a

 Vector   45  Occ=0.000000D+00  E= 6.991308D-01  Symmetry=e+

 Vector   46  Occ=0.000000D+00  E= 6.991308D-01  Symmetry=e+

 Vector   47  Occ=0.000000D+00  E= 7.718689D-01  Symmetry=a

 Vector   48  Occ=0.000000D+00  E= 7.720908D-01  Symmetry=e+

 Vector   49  Occ=0.000000D+00  E= 7.720908D-01  Symmetry=e+

 Vector   50  Occ=0.000000D+00  E= 7.941801D-01  Symmetry=a

 Vector   51  Occ=0.000000D+00  E= 8.011769D-01  Symmetry=e+

 Vector   52  Occ=0.000000D+00  E= 8.011769D-01  Symmetry=e+

 Vector   53  Occ=0.000000D+00  E= 8.142235D-01  Symmetry=a

 Vector   54  Occ=0.000000D+00  E= 8.375442D-01  Symmetry=e+

 Vector   55  Occ=0.000000D+00  E= 8.375442D-01  Symmetry=e+

 Vector   56  Occ=0.000000D+00  E= 8.487915D-01  Symmetry=a

 Vector   57  Occ=0.000000D+00  E= 8.764989D-01  Symmetry=e+

 Vector   58  Occ=0.000000D+00  E= 8.764989D-01  Symmetry=e+

 Vector   59  Occ=0.000000D+00  E= 8.846130D-01  Symmetry=a

 Vector   60  Occ=0.000000D+00  E= 9.199768D-01  Symmetry=e+

 Vector   61  Occ=0.000000D+00  E= 9.199768D-01  Symmetry=e+

 Vector   62  Occ=0.000000D+00  E= 1.091578D+00  Symmetry=a

 Vector   63  Occ=0.000000D+00  E= 1.097511D+00  Symmetry=a

 Vector   64  Occ=0.000000D+00  E= 1.151307D+00  Symmetry=e+

 Vector   65  Occ=0.000000D+00  E= 1.151307D+00  Symmetry=e+

 Vector   66  Occ=0.000000D+00  E= 1.314141D+00  Symmetry=a

 Vector   67  Occ=0.000000D+00  E= 1.334847D+00  Symmetry=e+

 Vector   68  Occ=0.000000D+00  E= 1.334847D+00  Symmetry=e+

 Vector   69  Occ=0.000000D+00  E= 1.427540D+00  Symmetry=a

 Vector   70  Occ=0.000000D+00  E= 1.482347D+00  Symmetry=e+

 Vector   71  Occ=0.000000D+00  E= 1.482347D+00  Symmetry=e+

 Vector   72  Occ=0.000000D+00  E= 1.771483D+00  Symmetry=e+

 Vector   73  Occ=0.000000D+00  E= 1.771483D+00  Symmetry=e+

 Vector   74  Occ=0.000000D+00  E= 1.932296D+00  Symmetry=a

 Vector   75  Occ=0.000000D+00  E= 2.162148D+00  Symmetry=e+

 Vector   76  Occ=0.000000D+00  E= 2.162148D+00  Symmetry=e+

 Vector   77  Occ=0.000000D+00  E= 2.210580D+00  Symmetry=a

 Vector   78  Occ=0.000000D+00  E= 3.138651D+00  Symmetry=e+

 Vector   79  Occ=0.000000D+00  E= 3.138651D+00  Symmetry=e+

 Vector   80  Occ=0.000000D+00  E= 3.424940D+00  Symmetry=e+

 Vector   81  Occ=0.000000D+00  E= 3.424940D+00  Symmetry=e+

 Vector   82  Occ=0.000000D+00  E= 3.904620D+00  Symmetry=a

     Multipole analysis of the density
     ---------------------------------

     L   x y z        total         alpha         beta         nuclear
     -   - - -        -----         -----         ----         -------
     0   0 0 0     -0.000000    -33.000000    -33.000000     66.000000

     1   1 0 0     -0.000000     -0.000000     -0.000000      0.000000
     1   0 1 0     -0.000000     -0.000000     -0.000000      0.000000
     1   0 0 1     -0.168326     -0.867023     -0.867023      1.565720

     2   2 0 0    -34.368048   -140.129233   -140.129233    245.890417
     2   1 1 0      0.000000      0.000000      0.000000     -0.000000
     2   1 0 1      0.000000      0.000000      0.000000      0.000000
     2   0 2 0    -34.368048   -140.129233   -140.129233    245.890417
     2   0 1 1      0.000000      0.000000      0.000000     -0.000000

         Total DFT energy =    -1516.564882035218
         Total DFT energy =    -1516.564882062300
         Total DFT energy =    -1516.564882132024
         Total DFT energy =    -1516.564881965579
         Total DFT energy =    -1516.564873905745
         Total DFT energy =    -1516.564874380802
         Total DFT energy =    -1516.564896131807
         Total DFT energy =    -1516.564896123469
         Total DFT energy =    -1516.564896120759
         Total DFT energy =    -1516.564896137824
         Total DFT energy =    -1516.564875658499
         Total DFT energy =    -1516.564874956959
         Total DFT energy =    -1516.564891114444
         Total DFT energy =    -1516.564891372110
         Total DFT energy =    -1516.564895012096
         Total DFT energy =    -1516.564894924495
         Total DFT energy =    -1516.564896822019
         Total DFT energy =    -1516.564896891113
 Zero-Point correction to Energy  =    7.936 kcal/mol  (  0.012646 au)
 Thermal correction to Energy     =   11.019 kcal/mol  (  0.017560 au)
 Thermal correction to Enthalpy   =   11.611 kcal/mol  (  0.018503 au)
 Total Entropy                    =   72.850 cal/mol-K
   - Translational                =   40.614 cal/mol-K (mol. weight = 135.9050)
   - Rotational                   =   25.517 cal/mol-K (symmetry #  =        3)
   - Vibrational                  =    6.719 cal/mol-K
   - Translational                  =    2.979 cal/mol-K
   - Rotational                     =    2.979 cal/mol-K
   - Vibrational                    =    9.845 cal/mol-K
 P.Frequency       -0.00       -0.00       -0.00       -0.00       -0.00        0.00
 P.Frequency      262.84      262.84      380.30      435.66      435.66      594.33
 P.Frequency      950.96      950.96     1280.08

 Normal Eigenvalue ||           Projected Infra Red Intensities
  Mode   [cm**-1]  || [atomic units] [(debye/angs)**2] [(KM/mol)] [arbitrary]
 ------ ---------- || -------------- ----------------- ---------- -----------
    1       -0.000 ||    0.000013           0.000         0.012       0.002
    2       -0.000 ||    0.000013           0.000         0.013       0.003
    3       -0.000 ||    0.000000           0.000         0.000       0.000
    4       -0.000 ||    0.000000           0.000         0.000       0.000
    5       -0.000 ||    0.000028           0.001         0.028       0.005
    6        0.000 ||    0.000029           0.001         0.028       0.005
    7      262.838 ||    0.000005           0.000         0.005       0.001
    8      262.838 ||    0.000005           0.000         0.005       0.001
    9      380.300 ||    0.000136           0.003         0.132       0.025
   10      435.662 ||    0.000449           0.010         0.438       0.084
   11      435.662 ||    0.000449           0.010         0.438       0.084
   12      594.330 ||    0.003102           0.072         3.024       0.581
   13      950.962 ||    0.280308           6.467       273.258      52.501
   14      950.962 ||    0.280308           6.467       273.258      52.501
   15     1280.078 ||    0.236019           5.445       230.083      44.206
 ----------------------------------------------------------------------------

 Total times  cpu:      168.1s     wall:      151.2s
