============================== echo of input deck ==============================
ECHO

start molecule

#MEMORY
memory 3584 mb

#TITLE
title "CFCl4"

charge 0

#GEOMETRY
geometry units angstroms print xyz autosym
C          0.01249        0.78594        0.06926
Cl         1.79048        0.78594        0.06926
Cl        -0.58017        1.81550       -1.25361
F         -0.44802        1.27613        1.27601
Cl        -0.58017       -0.87448       -0.16093
end

BASIS "ao basis" SPHERICAL PRINT
#BASIS SET: (7s,4p,1d) -> [3s,2p,1d]
C    S
   1238.4016938              0.54568832082E-02
    186.29004992             0.40638409211E-01
     42.251176346            0.18025593888
     11.676557932            0.46315121755
      3.5930506482           0.44087173314
C    S
      0.40245147363          1.0000000
C    S
      0.13090182668          1.0000000
C    P
      9.4680970621           0.38387871728E-01
      2.0103545142           0.21117025112
      0.54771004707          0.51328172114
C    P
      0.15268613795          1.0000000
C    D
      0.8000000              1.0000000
#BASIS SET: (7s,4p,1d) -> [3s,2p,1d]
F    S
   2894.8325990             -0.53408255515E-02
    435.41939120            -0.39904258866E-01
     98.843328866           -0.17912768038
     27.485198001           -0.46758090825
      8.5405498171          -0.44653131020
F    S
      1.0654578038           1.0000000
F    S
      0.33247346748          1.0000000
F    P
     22.696633924           -0.45212874436E-01
      4.9872339257          -0.23754317067
      1.3491613954          -0.51287353587
F    P
      0.34829881977          1.0000000
F    D
      1.4000000              1.0000000
#BASIS SET: (10s,7p,1d) -> [4s,3p,1d]
Cl    S
  10449.8275660              0.19708362484E-02
   1571.7365221              0.14754727977E-01
    357.12065523             0.66679112875E-01
    100.25185935             0.17228924084
     30.812727554            0.15883786100
Cl    S
     51.923789434           -0.10009298909
      5.7045760975           0.60841752753
      2.3508376809           0.54352153355
Cl    S
      0.44605124672          1.0000000
Cl    S
      0.16848856190          1.0000000
Cl    P
    307.66790569            -0.87801484118E-02
     72.102015515           -0.63563355471E-01
     22.532680262           -0.24016428276
      7.8991765444          -0.47798866557
      2.8767268321          -0.38515850005
Cl    P
      0.77459363955          1.0000000
Cl    P
      0.21037699698          1.0000000
Cl    D
      0.6500000              1.0000000
END

#DFT
dft
  grid medium
  convergence energy 1e-07
  mult 1
  iterations 30
  xc becke88 lyp
end

#OPT
driver
  default
  maxiter 100
end

set driver:linopt 0

#TASK
task dft optimize
task dft freq numerical

================================================================================

         Total DFT energy =    -1517.948784391061
@ Step       Energy      Delta E   Gmax     Grms     Xrms     Xmax   Walltime
@ ---- ---------------- -------- -------- -------- -------- -------- --------
@    0   -1517.94878439  0.0D+00  0.01782  0.00901  0.00000  0.00000      4.3
         Total DFT energy =    -1517.950632525198
@    1   -1517.95063253 -1.8D-03  0.00288  0.00095  0.03524  0.06493      7.9
         Total DFT energy =    -1517.950649039422
@    2   -1517.95064904 -1.7D-05  0.00007  0.00003  0.00238  0.00629     11.1
         Total DFT energy =    -1517.950649080848
@    3   -1517.95064908 -4.1D-08  0.00001  0.00000  0.00013  0.00031     13.6
@    3   -1517.95064908 -4.1D-08  0.00001  0.00000  0.00013  0.00031     13.6

 Output coordinates in angstroms (scale by  1.889725989 to convert to a.u.)

  No.       Tag          Charge          X              Y              Z
 ---- ---------------- ---------- -------------- -------------- --------------
    1 C                    6.0000     0.00000000     0.00000000     0.26712953
    2 Cl                  17.0000    -0.11794384    -1.70830703    -0.30973412
    3 Cl                  17.0000     1.53840920     0.75201116    -0.30973412
    4 F                    9.0000     0.00000000     0.00000000     1.61349251
    5 Cl                  17.0000    -1.42046537     0.95629587    -0.30973412

         Total DFT energy =    -1517.950649079992

                       DFT Final Molecular Orbital Analysis
                       ------------------------------------

 Vector    1  Occ=2.000000D+00  E=-1.007295D+02  Symmetry=e+

 Vector    3  Occ=2.000000D+00  E=-1.007294D+02  Symmetry=a

 Vector    4  Occ=2.000000D+00  E=-2.434716D+01  Symmetry=a

 Vector    5  Occ=2.000000D+00  E=-1.016139D+01  Symmetry=a

 Vector    6  Occ=2.000000D+00  E=-9.197063D+00  Symmetry=e+

 Vector    7  Occ=2.000000D+00  E=-9.197063D+00  Symmetry=e+

 Vector    8  Occ=2.000000D+00  E=-9.197011D+00  Symmetry=a

 Vector    9  Occ=2.000000D+00  E=-7.037317D+00  Symmetry=e+

 Vector   10  Occ=2.000000D+00  E=-7.037317D+00  Symmetry=e+

 Vector   11  Occ=2.000000D+00  E=-7.037293D+00  Symmetry=a

 Vector   12  Occ=2.000000D+00  E=-7.024286D+00  Symmetry=e+

 Vector   13  Occ=2.000000D+00  E=-7.024286D+00  Symmetry=e+

 Vector   14  Occ=2.000000D+00  E=-7.024281D+00  Symmetry=a

 Vector   15  Occ=2.000000D+00  E=-7.024196D+00  Symmetry=a

 Vector   16  Occ=2.000000D+00  E=-7.024174D+00  Symmetry=e+

 Vector   17  Occ=2.000000D+00  E=-7.024174D+00  Symmetry=e+

 Vector   18  Occ=2.000000D+00  E=-1.149109D+00  Symmetry=a

 Vector   19  Occ=2.000000D+00  E=-8.386276D-01  Symmetry=a

 Vector   20  Occ=2.000000D+00  E=-7.646194D-01  Symmetry=e+

 Vector   21  Occ=2.000000D+00  E=-7.646194D-01  Symmetry=e+

 Vector   22  Occ=2.000000D+00  E=-5.877592D-01  Symmetry=a

 Vector   23  Occ=2.000000D+00  E=-4.917744D-01  Symmetry=a

 Vector   24  Occ=2.000000D+00  E=-4.750916D-01  Symmetry=e+

 Vector   25  Occ=2.000000D+00  E=-4.750916D-01  Symmetry=e+

 Vector   26  Occ=2.000000D+00  E=-3.654100D-01  Symmetry=e+

 Vector   27  Occ=2.000000D+00  E=-3.654100D-01  Symmetry=e+

 Vector   28  Occ=2.000000D+00  E=-3.134019D-01  Symmetry=a

 Vector   29  Occ=2.000000D+00  E=-3.045088D-01  Symmetry=e+

 Vector   30  Occ=2.000000D+00  E=-3.045088D-01  Symmetry=e+

 Vector   31  Occ=2.000000D+00  E=-2.771292D-01  Symmetry=e+

 Vector   32  Occ=2.000000D+00  E=-2.771292D-01  Symmetry=e+

 Vector   33  Occ=2.000000D+00  E=-2.648309D-01  Symmetry=a

 Vector   34  Occ=0.000000D+00  E=-7.084425D-02  Symmetry=a

 Vector   35  Occ=0.000000D+00  E=-1.841012D-02  Symmetry=e+

 Vector   36  Occ=0.000000D+00  E=-1.841012D-02  Symmetry=e+

 Vector   37  Occ=0.000000D+00  E= 6.568042D-02  Symmetry=a

 Vector   38  Occ=0.000000D+00  E= 3.223372D-01  Symmetry=a

 Vector   39  Occ=0.000000D+00  E= 3.788299D-01  Symmetry=e+

 Vector   40  Occ=0.000000D+00  E= 3.788299D-01  Symmetry=e+

 Vector   41  Occ=0.000000D+00  E= 3.983003D-01  Symmetry=a

 Vector   42  Occ=0.000000D+00  E= 4.887754D-01  Symmetry=e+

 Vector   43  Occ=0.000000D+00  E= 4.887754D-01  Symmetry=e+

 Vector   44  Occ=0.000000D+00  E= 5.964207D-01  Symmetry=a

 Vector   45  Occ=0.000000D+00  E= 6.170060D-01  Symmetry=e+

 Vector   46  Occ=0.000000D+00  E= 6.170060D-01  Symmetry=e+

 Vector   47  Occ=0.000000D+00  E= 6.671983D-01  Symmetry=a

 Vector   48  Occ=0.000000D+00  E= 6.698262D-01  Symmetry=e+

 Vector   49  Occ=0.000000D+00  E= 6.698262D-01  Symmetry=e+

 Vector   50  Occ=0.000000D+00  E= 6.910063D-01  Symmetry=a

 Vector   51  Occ=0.000000D+00  E= 6.962750D-01  Symmetry=e+

 Vector   52  Occ=0.000000D+00  E= 6.962750D-01  Symmetry=e+

 Vector   53  Occ=0.000000D+00  E= 7.049937D-01  Symmetry=a

 Vector   54  Occ=0.000000D+00  E= 7.065638D-01  Symmetry=e+

 Vector   55  Occ=0.000000D+00  E= 7.065638D-01  Symmetry=e+

 Vector   56  Occ=0.000000D+00  E= 7.137683D-01  Symmetry=a

 Vector   57  Occ=0.000000D+00  E= 7.634056D-01  Symmetry=a

 Vector   58  Occ=0.000000D+00  E= 7.644868D-01  Symmetry=e+

 Vector   59  Occ=0.000000D+00  E= 7.644868D-01  Symmetry=e+

 Vector   60  Occ=0.000000D+00  E= 8.000933D-01  Symmetry=e+

 Vector   61  Occ=0.000000D+00  E= 8.000933D-01  Symmetry=e+

 Vector   62  Occ=0.000000D+00  E= 9.562947D-01  Symmetry=a

 Vector   63  Occ=0.000000D+00  E= 9.671787D-01  Symmetry=a

 Vector   64  Occ=0.000000D+00  E= 1.010829D+00  Symmetry=e+

 Vector   65  Occ=0.000000D+00  E= 1.010829D+00  Symmetry=e+

 Vector   66  Occ=0.000000D+00  E= 1.167496D+00  Symmetry=e+

 Vector   67  Occ=0.000000D+00  E= 1.167496D+00  Symmetry=e+

 Vector   68  Occ=0.000000D+00  E= 1.169848D+00  Symmetry=a

 Vector   69  Occ=0.000000D+00  E= 1.276723D+00  Symmetry=a

 Vector   70  Occ=0.000000D+00  E= 1.314576D+00  Symmetry=e+

 Vector   71  Occ=0.000000D+00  E= 1.314576D+00  Symmetry=e+

 Vector   72  Occ=0.000000D+00  E= 1.621203D+00  Symmetry=e+

 Vector   73  Occ=0.000000D+00  E= 1.621203D+00  Symmetry=e+

 Vector   74  Occ=0.000000D+00  E= 1.814810D+00  Symmetry=a

 Vector   75  Occ=0.000000D+00  E= 1.977311D+00  Symmetry=a

 Vector   76  Occ=0.000000D+00  E= 1.993315D+00  Symmetry=e+

 Vector   77  Occ=0.000000D+00  E= 1.993315D+00  Symmetry=e+

 Vector   78  Occ=0.000000D+00  E= 2.945868D+00  Symmetry=e+

 Vector   79  Occ=0.000000D+00  E= 2.945868D+00  Symmetry=e+

 Vector   80  Occ=0.000000D+00  E= 3.178065D+00  Symmetry=e+

 Vector   81  Occ=0.000000D+00  E= 3.178065D+00  Symmetry=e+

 Vector   82  Occ=0.000000D+00  E= 3.632215D+00  Symmetry=a

     Multipole analysis of the density
     ---------------------------------

     L   x y z        total         alpha         beta         nuclear
     -   - - -        -----         -----         ----         -------
     0   0 0 0     -0.000000    -33.000000    -33.000000     66.000000

     1   1 0 0      0.000000      0.000000      0.000000      0.000000
     1   0 1 0     -0.000000     -0.000000     -0.000000      0.000000
     1   0 0 1     -0.092227     -0.355811     -0.355811      0.619395

     2   2 0 0    -34.356136   -150.685348   -150.685348    267.014560
     2   1 1 0      0.000000      0.000000      0.000000      0.000000
     2   1 0 1     -0.000000     -0.000000     -0.000000     -0.000000
     2   0 2 0    -34.356136   -150.685348   -150.685348    267.014560
     2   0 1 1      0.000000      0.000000      0.000000      0.000000

         Total DFT energy =    -1517.950632857294
         Total DFT energy =    -1517.950632899122
         Total DFT energy =    -1517.950632902983
         Total DFT energy =    -1517.950632858363
         Total DFT energy =    -1517.950625873553
         Total DFT energy =    -1517.950625812866
         Total DFT energy =    -1517.950641292193
         Total DFT energy =    -1517.950641316680
         Total DFT energy =    -1517.950641314698
         Total DFT energy =    -1517.950641280715
         Total DFT energy =    -1517.950626883593
         Total DFT energy =    -1517.950626687805
         Total DFT energy =    -1517.950638807312
         Total DFT energy =    -1517.950638804856
         Total DFT energy =    -1517.950641020022
         Total DFT energy =    -1517.950641049020
         Total DFT energy =    -1517.950642052454
         Total DFT energy =    -1517.950642143207
 Zero-Point correction to Energy  =    6.627 kcal/mol  (  0.010561 au)
 Thermal correction to Energy     =    9.983 kcal/mol  (  0.015909 au)
 Thermal correction to Enthalpy   =   10.575 kcal/mol  (  0.016852 au)
 Total Entropy                    =   74.727 cal/mol-K
   - Translational                =   40.614 cal/mol-K (mol. weight = 135.9050)
   - Rotational                   =   25.759 cal/mol-K (symmetry #  =        3)
   - Vibrational                  =    8.353 cal/mol-K
   - Translational                  =    2.979 cal/mol-K
   - Rotational                     =    2.979 cal/mol-K
   - Vibrational                    =   11.236 cal/mol-K
 P.Frequency       -0.00        0.00        0.00        0.00        0.00        0.00
 P.Frequency      229.08      229.08      331.33      375.08      375.08      499.07
 P.Frequency      760.13      760.13     1078.90

 Normal Eigenvalue ||           Projected Infra Red Intensities
  Mode   [cm**-1]  || [atomic units] [(debye/angs)**2] [(KM/mol)] [arbitrary]
 ------ ---------- || -------------- ----------------- ---------- -----------
    1       -0.000 ||    0.000001           0.000         0.001       0.000
    2        0.000 ||    0.000002           0.000         0.002       0.000
    3        0.000 ||    0.000001           0.000         0.001       0.000
    4        0.000 ||    0.000002           0.000         0.002       0.000
    5        0.000 ||    0.000004           0.000         0.004       0.001
    6        0.000 ||    0.000005           0.000         0.005       0.001
    7      229.078 ||    0.000000           0.000         0.000       0.000
    8      229.078 ||    0.000000           0.000         0.000       0.000
    9      331.334 ||    0.000056           0.001         0.054       0.010
   10      375.080 ||    0.002056           0.047         2.004       0.383
   11      375.080 ||    0.002056           0.047         2.004       0.383
   12      499.073 ||    0.004665           0.108         4.548       0.869
   13      760.132 ||    0.288348           6.652       281.096      53.687
   14      760.132 ||    0.288348           6.652       281.096      53.687
   15     1078.897 ||    0.220097           5.078       214.562      40.979
 ----------------------------------------------------------------------------

 Total times  cpu:      146.5s     wall:      126.2s
