============================== echo of input deck ==============================
ECHO

start molecule

#MEMORY
memory 3584 mb

#TITLE
title "CFCl4"

charge 0

#GEOMETRY
geometry units angstroms print xyz autosym
C          0.01249        0.78594        0.06926
Cl         1.79048        0.78594        0.06926
Cl        -0.58017        1.81550       -1.25361
F         -0.44802        1.27613        1.27601
Cl        -0.58017       -0.87448       -0.16093
end

BASIS "ao basis" SPHERICAL PRINT
#BASIS SET: (7s,4p,1d) -> [3s,2p,1d]
C    S
   1238.4016938              0.54568832082E-02
    186.29004992             0.40638409211E-01
     42.251176346            0.18025593888
     11.676557932            0.46315121755
      3.5930506482           0.44087173314
C    S
      0.40245147363          1.0000000
C    S
      0.13090182668          1.0000000
C    P
      9.4680970621           0.38387871728E-01
      2.0103545142           0.21117025112
      0.54771004707          0.51328172114
C    P
      0.15268613795          1.0000000
C    D
      0.8000000              1.0000000
#BASIS SET: (7s,4p,1d) -> [3s,2p,1d]
F    S
   2894.8325990             -0.53408255515E-02
    435.41939120            -0.39904258866E-01
     98.843328866           -0.17912768038
     27.485198001           -0.46758090825
      8.5405498171          -0.44653131020
F    S
      1.0654578038           1.0000000
F    S
      0.33247346748          1.0000000
F    P
     22.696633924           -0.45212874436E-01
      4.9872339257          -0.23754317067
      1.3491613954          -0.51287353587
F    P
      0.34829881977          1.0000000
F    D
      1.4000000              1.0000000
#BASIS SET: (10s,7p,1d) -> [4s,3p,1d]
Cl    S
  10449.8275660              0.19708362484E-02
   1571.7365221              0.14754727977E-01
    357.12065523             0.66679112875E-01
    100.25185935             0.17228924084
     30.812727554            0.15883786100
Cl    S
     51.923789434           -0.10009298909
      5.7045760975           0.60841752753
      2.3508376809           0.54352153355
Cl    S
      0.44605124672          1.0000000
Cl    S
      0.16848856190          1.0000000
Cl    P
    307.66790569            -0.87801484118E-02
     72.102015515           -0.63563355471E-01
     22.532680262           -0.24016428276
      7.8991765444          -0.47798866557
      2.8767268321          -0.38515850005
Cl    P
      0.77459363955          1.0000000
Cl    P
      0.21037699698          1.0000000
Cl    D
      0.6500000              1.0000000
END

#DFT
dft
  grid medium
  convergence energy 1e-07
  mult 1
  iterations 30
  xc xwpbe 1.00 cpbe96 1.0 hfexch 1.00
  cam 0.4 cam_alpha 0.00 cam_beta 1.00
end

#OPT
driver
  default
  maxiter 100
end

set driver:linopt 0

#TASK
task dft optimize
task dft freq numerical

================================================================================

         Total DFT energy =    -1517.440920222547
@ Step       Energy      Delta E   Gmax     Grms     Xrms     Xmax   Walltime
@ ---- ---------------- -------- -------- -------- -------- -------- --------
@    0   -1517.44092022  0.0D+00  0.04450  0.01678  0.00000  0.00000     13.1
         Total DFT energy =    -1517.444102508349
@    1   -1517.44410251 -3.2D-03  0.01840  0.00637  0.05469  0.16946     25.5
         Total DFT energy =    -1517.444641309787
@    2   -1517.44464131 -5.4D-04  0.00166  0.00086  0.02476  0.06432     36.9
         Total DFT energy =    -1517.444664163415
@    3   -1517.44466416 -2.3D-05  0.00042  0.00023  0.00511  0.00951     47.5
         Total DFT energy =    -1517.444664782550
@    4   -1517.44466478 -6.2D-07  0.00016  0.00005  0.00058  0.00119     55.0
@    4   -1517.44466478 -6.2D-07  0.00016  0.00005  0.00058  0.00119     55.0

 Output coordinates in angstroms (scale by  1.889725989 to convert to a.u.)

  No.       Tag          Charge          X              Y              Z
 ---- ---------------- ---------- -------------- -------------- --------------
    1 C                    6.0000     0.00000000    -0.00000000     0.26048498
    2 Cl                  17.0000    -0.11446133    -1.65786618    -0.29955527
    3 Cl                  17.0000     1.49298489     0.72980667    -0.29955527
    4 F                    9.0000     0.00000000     0.00000000     1.58960052
    5 Cl                  17.0000    -1.37852356     0.92805951    -0.29955527

         Total DFT energy =    -1517.444664814870

                       DFT Final Molecular Orbital Analysis
                       ------------------------------------

 Vector    1  Occ=2.000000D+00  E=-1.008945D+02  Symmetry=e+

 Vector    3  Occ=2.000000D+00  E=-1.008944D+02  Symmetry=a

 Vector    4  Occ=2.000000D+00  E=-2.453922D+01  Symmetry=a

 Vector    5  Occ=2.000000D+00  E=-1.038062D+01  Symmetry=a

 Vector    6  Occ=2.000000D+00  E=-9.435675D+00  Symmetry=e+

 Vector    7  Occ=2.000000D+00  E=-9.435675D+00  Symmetry=e+

 Vector    8  Occ=2.000000D+00  E=-9.435611D+00  Symmetry=a

 Vector    9  Occ=2.000000D+00  E=-7.262877D+00  Symmetry=e+

 Vector   10  Occ=2.000000D+00  E=-7.262877D+00  Symmetry=e+

 Vector   11  Occ=2.000000D+00  E=-7.262849D+00  Symmetry=a

 Vector   12  Occ=2.000000D+00  E=-7.249168D+00  Symmetry=e+

 Vector   13  Occ=2.000000D+00  E=-7.249168D+00  Symmetry=e+

 Vector   14  Occ=2.000000D+00  E=-7.249159D+00  Symmetry=a

 Vector   15  Occ=2.000000D+00  E=-7.249000D+00  Symmetry=a

 Vector   16  Occ=2.000000D+00  E=-7.248980D+00  Symmetry=e+

 Vector   17  Occ=2.000000D+00  E=-7.248980D+00  Symmetry=e+

 Vector   18  Occ=2.000000D+00  E=-1.400369D+00  Symmetry=a

 Vector   19  Occ=2.000000D+00  E=-1.104769D+00  Symmetry=a

 Vector   20  Occ=2.000000D+00  E=-1.009548D+00  Symmetry=e+

 Vector   21  Occ=2.000000D+00  E=-1.009548D+00  Symmetry=e+

 Vector   22  Occ=2.000000D+00  E=-7.965465D-01  Symmetry=a

 Vector   23  Occ=2.000000D+00  E=-6.916096D-01  Symmetry=a

 Vector   24  Occ=2.000000D+00  E=-6.820773D-01  Symmetry=e+

 Vector   25  Occ=2.000000D+00  E=-6.820773D-01  Symmetry=e+

 Vector   26  Occ=2.000000D+00  E=-5.542338D-01  Symmetry=e+

 Vector   27  Occ=2.000000D+00  E=-5.542338D-01  Symmetry=e+

 Vector   28  Occ=2.000000D+00  E=-4.996545D-01  Symmetry=a

 Vector   29  Occ=2.000000D+00  E=-4.840192D-01  Symmetry=e+

 Vector   30  Occ=2.000000D+00  E=-4.840192D-01  Symmetry=e+

 Vector   31  Occ=2.000000D+00  E=-4.521459D-01  Symmetry=e+

 Vector   32  Occ=2.000000D+00  E=-4.521459D-01  Symmetry=e+

 Vector   33  Occ=2.000000D+00  E=-4.370042D-01  Symmetry=a

 Vector   34  Occ=0.000000D+00  E= 7.686899D-02  Symmetry=a

 Vector   35  Occ=0.000000D+00  E= 1.270010D-01  Symmetry=e+

 Vector   36  Occ=0.000000D+00  E= 1.270010D-01  Symmetry=e+

 Vector   37  Occ=0.000000D+00  E= 2.075013D-01  Symmetry=a

 Vector   38  Occ=0.000000D+00  E= 4.504659D-01  Symmetry=a

 Vector   39  Occ=0.000000D+00  E= 5.038226D-01  Symmetry=e+

 Vector   40  Occ=0.000000D+00  E= 5.038226D-01  Symmetry=e+

 Vector   41  Occ=0.000000D+00  E= 5.597695D-01  Symmetry=a

 Vector   42  Occ=0.000000D+00  E= 6.366928D-01  Symmetry=e+

 Vector   43  Occ=0.000000D+00  E= 6.366928D-01  Symmetry=e+

 Vector   44  Occ=0.000000D+00  E= 7.317110D-01  Symmetry=a

 Vector   45  Occ=0.000000D+00  E= 7.530623D-01  Symmetry=e+

 Vector   46  Occ=0.000000D+00  E= 7.530623D-01  Symmetry=e+

 Vector   47  Occ=0.000000D+00  E= 8.216770D-01  Symmetry=a

 Vector   48  Occ=0.000000D+00  E= 8.271889D-01  Symmetry=e+

 Vector   49  Occ=0.000000D+00  E= 8.271889D-01  Symmetry=e+

 Vector   50  Occ=0.000000D+00  E= 8.479782D-01  Symmetry=a

 Vector   51  Occ=0.000000D+00  E= 8.517362D-01  Symmetry=e+

 Vector   52  Occ=0.000000D+00  E= 8.517362D-01  Symmetry=e+

 Vector   53  Occ=0.000000D+00  E= 8.623654D-01  Symmetry=a

 Vector   54  Occ=0.000000D+00  E= 8.809229D-01  Symmetry=e+

 Vector   55  Occ=0.000000D+00  E= 8.809229D-01  Symmetry=e+

 Vector   56  Occ=0.000000D+00  E= 8.959000D-01  Symmetry=a

 Vector   57  Occ=0.000000D+00  E= 9.308185D-01  Symmetry=e+

 Vector   58  Occ=0.000000D+00  E= 9.308185D-01  Symmetry=e+

 Vector   59  Occ=0.000000D+00  E= 9.339542D-01  Symmetry=a

 Vector   60  Occ=0.000000D+00  E= 9.732587D-01  Symmetry=e+

 Vector   61  Occ=0.000000D+00  E= 9.732587D-01  Symmetry=e+

 Vector   62  Occ=0.000000D+00  E= 1.145476D+00  Symmetry=a

 Vector   63  Occ=0.000000D+00  E= 1.147403D+00  Symmetry=a

 Vector   64  Occ=0.000000D+00  E= 1.195636D+00  Symmetry=e+

 Vector   65  Occ=0.000000D+00  E= 1.195636D+00  Symmetry=e+

 Vector   66  Occ=0.000000D+00  E= 1.355444D+00  Symmetry=a

 Vector   67  Occ=0.000000D+00  E= 1.367377D+00  Symmetry=e+

 Vector   68  Occ=0.000000D+00  E= 1.367377D+00  Symmetry=e+

 Vector   69  Occ=0.000000D+00  E= 1.460868D+00  Symmetry=a

 Vector   70  Occ=0.000000D+00  E= 1.513512D+00  Symmetry=e+

 Vector   71  Occ=0.000000D+00  E= 1.513512D+00  Symmetry=e+

 Vector   72  Occ=0.000000D+00  E= 1.796366D+00  Symmetry=e+

 Vector   73  Occ=0.000000D+00  E= 1.796366D+00  Symmetry=e+

 Vector   74  Occ=0.000000D+00  E= 1.978190D+00  Symmetry=a

 Vector   75  Occ=0.000000D+00  E= 2.178098D+00  Symmetry=a

 Vector   76  Occ=0.000000D+00  E= 2.181099D+00  Symmetry=e+

 Vector   77  Occ=0.000000D+00  E= 2.181099D+00  Symmetry=e+

 Vector   78  Occ=0.000000D+00  E= 3.129841D+00  Symmetry=e+

 Vector   79  Occ=0.000000D+00  E= 3.129841D+00  Symmetry=e+

 Vector   80  Occ=0.000000D+00  E= 3.380847D+00  Symmetry=e+

 Vector   81  Occ=0.000000D+00  E= 3.380847D+00  Symmetry=e+

 Vector   82  Occ=0.000000D+00  E= 3.843363D+00  Symmetry=a

     Multipole analysis of the density
     ---------------------------------

     L   x y z        total         alpha         beta         nuclear
     -   - - -        -----         -----         ----         -------
     0   0 0 0     -0.000000    -33.000000    -33.000000     66.000000

     1   1 0 0      0.000000      0.000000      0.000000      0.000000
     1   0 1 0      0.000000     -0.000000     -0.000000      0.000000
     1   0 0 1     -0.121075     -0.619893     -0.619893      1.118710

     2   2 0 0    -34.541549   -143.010364   -143.010364    251.479179
     2   1 1 0     -0.000000     -0.000000     -0.000000     -0.000000
     2   1 0 1      0.000000      0.000000      0.000000      0.000000
     2   0 2 0    -34.541549   -143.010364   -143.010364    251.479179
     2   0 1 1      0.000000      0.000000      0.000000     -0.000000

         Total DFT energy =    -1517.444653664571
         Total DFT energy =    -1517.444653832302
         Total DFT energy =    -1517.444653808677
         Total DFT energy =    -1517.444653669399
         Total DFT energy =    -1517.444645732473
         Total DFT energy =    -1517.444649210965
         Total DFT energy =    -1517.444667067670
         Total DFT energy =    -1517.444667082701
         Total DFT energy =    -1517.444667048075
         Total DFT energy =    -1517.444667097002
         Total DFT energy =    -1517.444650726528
         Total DFT energy =    -1517.444646945194
         Total DFT energy =    -1517.444662243486
         Total DFT energy =    -1517.444662671610
         Total DFT energy =    -1517.444666037288
         Total DFT energy =    -1517.444665802286
         Total DFT energy =    -1517.444667647587
         Total DFT energy =    -1517.444667725930
 Zero-Point correction to Energy  =    7.634 kcal/mol  (  0.012166 au)
 Thermal correction to Energy     =   10.772 kcal/mol  (  0.017166 au)
 Thermal correction to Enthalpy   =   11.364 kcal/mol  (  0.018110 au)
 Total Entropy                    =   73.247 cal/mol-K
   - Translational                =   40.614 cal/mol-K (mol. weight = 135.9050)
   - Rotational                   =   25.594 cal/mol-K (symmetry #  =        3)
   - Vibrational                  =    7.039 cal/mol-K
   - Translational                  =    2.979 cal/mol-K
   - Rotational                     =    2.979 cal/mol-K
   - Vibrational                    =   10.124 cal/mol-K
 P.Frequency       -0.00       -0.00       -0.00        0.00        0.00        0.00
 P.Frequency      256.15      256.15      369.96      418.76      418.76      573.31
 P.Frequency      922.29      922.29     1205.17

 Normal Eigenvalue ||           Projected Infra Red Intensities
  Mode   [cm**-1]  || [atomic units] [(debye/angs)**2] [(KM/mol)] [arbitrary]
 ------ ---------- || -------------- ----------------- ---------- -----------
    1       -0.000 ||    0.000015           0.000         0.015       0.003
    2       -0.000 ||    0.000008           0.000         0.008       0.002
    3       -0.000 ||    0.000014           0.000         0.014       0.003
    4        0.000 ||    0.000006           0.000         0.005       0.001
    5        0.000 ||    0.000000           0.000         0.000       0.000
    6        0.000 ||    0.000000           0.000         0.000       0.000
    7      256.154 ||    0.000017           0.000         0.017       0.003
    8      256.154 ||    0.000017           0.000         0.017       0.003
    9      369.956 ||    0.000198           0.005         0.193       0.038
   10      418.764 ||    0.000254           0.006         0.247       0.049
   11      418.764 ||    0.000254           0.006         0.247       0.049
   12      573.305 ||    0.003288           0.076         3.205       0.635
   13      922.290 ||    0.270319           6.236       263.521      52.195
   14      922.290 ||    0.270319           6.236       263.521      52.195
   15     1205.166 ||    0.232148           5.356       226.309      44.824
 ----------------------------------------------------------------------------

 Total times  cpu:      476.9s     wall:      457.4s
