============================== echo of input deck ==============================
ECHO

start molecule

#MEMORY
memory 3584 mb

#TITLE
title "CFCl4"

charge 0

#GEOMETRY
geometry units angstroms print xyz autosym
C          0.01249        0.78594        0.06926
Cl         1.79048        0.78594        0.06926
Cl        -0.58017        1.81550       -1.25361
F         -0.44802        1.27613        1.27601
Cl        -0.58017       -0.87448       -0.16093
end

BASIS "ao basis" SPHERICAL PRINT
#BASIS SET: (7s,4p,1d) -> [3s,2p,1d]
C    S
   1238.4016938              0.54568832082E-02
    186.29004992             0.40638409211E-01
     42.251176346            0.18025593888
     11.676557932            0.46315121755
      3.5930506482           0.44087173314
C    S
      0.40245147363          1.0000000
C    S
      0.13090182668          1.0000000
C    P
      9.4680970621           0.38387871728E-01
      2.0103545142           0.21117025112
      0.54771004707          0.51328172114
C    P
      0.15268613795          1.0000000
C    D
      0.8000000              1.0000000
#BASIS SET: (7s,4p,1d) -> [3s,2p,1d]
F    S
   2894.8325990             -0.53408255515E-02
    435.41939120            -0.39904258866E-01
     98.843328866           -0.17912768038
     27.485198001           -0.46758090825
      8.5405498171          -0.44653131020
F    S
      1.0654578038           1.0000000
F    S
      0.33247346748          1.0000000
F    P
     22.696633924           -0.45212874436E-01
      4.9872339257          -0.23754317067
      1.3491613954          -0.51287353587
F    P
      0.34829881977          1.0000000
F    D
      1.4000000              1.0000000
#BASIS SET: (10s,7p,1d) -> [4s,3p,1d]
Cl    S
  10449.8275660              0.19708362484E-02
   1571.7365221              0.14754727977E-01
    357.12065523             0.66679112875E-01
    100.25185935             0.17228924084
     30.812727554            0.15883786100
Cl    S
     51.923789434           -0.10009298909
      5.7045760975           0.60841752753
      2.3508376809           0.54352153355
Cl    S
      0.44605124672          1.0000000
Cl    S
      0.16848856190          1.0000000
Cl    P
    307.66790569            -0.87801484118E-02
     72.102015515           -0.63563355471E-01
     22.532680262           -0.24016428276
      7.8991765444          -0.47798866557
      2.8767268321          -0.38515850005
Cl    P
      0.77459363955          1.0000000
Cl    P
      0.21037699698          1.0000000
Cl    D
      0.6500000              1.0000000
END

#DFT
dft
  grid medium
  convergence energy 1e-07
  mult 1
  iterations 30
  xc revpbe
end

#OPT
driver
  default
  maxiter 100
end

set driver:linopt 0

#TASK
task dft optimize
task dft freq numerical

================================================================================

         Total DFT energy =    -1515.156294047664
@ Step       Energy      Delta E   Gmax     Grms     Xrms     Xmax   Walltime
@ ---- ---------------- -------- -------- -------- -------- -------- --------
@    0   -1515.15629405  0.0D+00  0.03089  0.01732  0.00000  0.00000      4.1
         Total DFT energy =    -1515.162586131336
@    1   -1515.16258613 -6.3D-03  0.00176  0.00114  0.06029  0.13410      7.9
         Total DFT energy =    -1515.162625795173
@    2   -1515.16262580 -4.0D-05  0.00036  0.00021  0.00563  0.01083     11.0
         Total DFT energy =    -1515.162627046657
@    3   -1515.16262705 -1.3D-06  0.00002  0.00001  0.00102  0.00220     14.2
         Total DFT energy =    -1515.162627048903
@    4   -1515.16262705 -2.2D-09  0.00001  0.00000  0.00003  0.00006     16.8
@    4   -1515.16262705 -2.2D-09  0.00001  0.00000  0.00003  0.00006     16.8

 Output coordinates in angstroms (scale by  1.889725989 to convert to a.u.)

  No.       Tag          Charge          X              Y              Z
 ---- ---------------- ---------- -------------- -------------- --------------
    1 C                    6.0000     0.00000000     0.00000000     0.27283378
    2 Cl                  17.0000    -0.12084853    -1.75037886    -0.32018333
    3 Cl                  17.0000     1.57629682     0.77053153    -0.32018333
    4 F                    9.0000     0.00000000     0.00000000     1.63913589
    5 Cl                  17.0000    -1.45544829     0.97984733    -0.32018333

         Total DFT energy =    -1515.162627045912

                       DFT Final Molecular Orbital Analysis
                       ------------------------------------

 Vector    1  Occ=2.000000D+00  E=-1.006680D+02  Symmetry=e+

 Vector    3  Occ=2.000000D+00  E=-1.006679D+02  Symmetry=a

 Vector    4  Occ=2.000000D+00  E=-2.431043D+01  Symmetry=a

 Vector    5  Occ=2.000000D+00  E=-1.012821D+01  Symmetry=a

 Vector    6  Occ=2.000000D+00  E=-9.154740D+00  Symmetry=e+

 Vector    7  Occ=2.000000D+00  E=-9.154740D+00  Symmetry=e+

 Vector    8  Occ=2.000000D+00  E=-9.154693D+00  Symmetry=a

 Vector    9  Occ=2.000000D+00  E=-6.985878D+00  Symmetry=e+

 Vector   10  Occ=2.000000D+00  E=-6.985878D+00  Symmetry=e+

 Vector   11  Occ=2.000000D+00  E=-6.985857D+00  Symmetry=a

 Vector   12  Occ=2.000000D+00  E=-6.972470D+00  Symmetry=e+

 Vector   13  Occ=2.000000D+00  E=-6.972470D+00  Symmetry=e+

 Vector   14  Occ=2.000000D+00  E=-6.972466D+00  Symmetry=a

 Vector   15  Occ=2.000000D+00  E=-6.972413D+00  Symmetry=a

 Vector   16  Occ=2.000000D+00  E=-6.972393D+00  Symmetry=e+

 Vector   17  Occ=2.000000D+00  E=-6.972393D+00  Symmetry=e+

 Vector   18  Occ=2.000000D+00  E=-1.105890D+00  Symmetry=a

 Vector   19  Occ=2.000000D+00  E=-7.895694D-01  Symmetry=a

 Vector   20  Occ=2.000000D+00  E=-7.228762D-01  Symmetry=e+

 Vector   21  Occ=2.000000D+00  E=-7.228762D-01  Symmetry=e+

 Vector   22  Occ=2.000000D+00  E=-5.521448D-01  Symmetry=a

 Vector   23  Occ=2.000000D+00  E=-4.497034D-01  Symmetry=a

 Vector   24  Occ=2.000000D+00  E=-4.309795D-01  Symmetry=e+

 Vector   25  Occ=2.000000D+00  E=-4.309795D-01  Symmetry=e+

 Vector   26  Occ=2.000000D+00  E=-3.257556D-01  Symmetry=e+

 Vector   27  Occ=2.000000D+00  E=-3.257556D-01  Symmetry=e+

 Vector   28  Occ=2.000000D+00  E=-2.750464D-01  Symmetry=a

 Vector   29  Occ=2.000000D+00  E=-2.673403D-01  Symmetry=e+

 Vector   30  Occ=2.000000D+00  E=-2.673403D-01  Symmetry=e+

 Vector   31  Occ=2.000000D+00  E=-2.430669D-01  Symmetry=e+

 Vector   32  Occ=2.000000D+00  E=-2.430669D-01  Symmetry=e+

 Vector   33  Occ=2.000000D+00  E=-2.321233D-01  Symmetry=a

 Vector   34  Occ=0.000000D+00  E=-5.575947D-02  Symmetry=a

 Vector   35  Occ=0.000000D+00  E= 3.058458D-03  Symmetry=e+

 Vector   36  Occ=0.000000D+00  E= 3.058458D-03  Symmetry=e+

 Vector   37  Occ=0.000000D+00  E= 8.945296D-02  Symmetry=a

 Vector   38  Occ=0.000000D+00  E= 3.653508D-01  Symmetry=a

 Vector   39  Occ=0.000000D+00  E= 4.251515D-01  Symmetry=e+

 Vector   40  Occ=0.000000D+00  E= 4.251515D-01  Symmetry=e+

 Vector   41  Occ=0.000000D+00  E= 4.311431D-01  Symmetry=a

 Vector   42  Occ=0.000000D+00  E= 5.240665D-01  Symmetry=e+

 Vector   43  Occ=0.000000D+00  E= 5.240665D-01  Symmetry=e+

 Vector   44  Occ=0.000000D+00  E= 6.377900D-01  Symmetry=a

 Vector   45  Occ=0.000000D+00  E= 6.606919D-01  Symmetry=e+

 Vector   46  Occ=0.000000D+00  E= 6.606919D-01  Symmetry=e+

 Vector   47  Occ=0.000000D+00  E= 7.028873D-01  Symmetry=e+

 Vector   48  Occ=0.000000D+00  E= 7.028873D-01  Symmetry=e+

 Vector   49  Occ=0.000000D+00  E= 7.034805D-01  Symmetry=a

 Vector   50  Occ=0.000000D+00  E= 7.273142D-01  Symmetry=a

 Vector   51  Occ=0.000000D+00  E= 7.311839D-01  Symmetry=e+

 Vector   52  Occ=0.000000D+00  E= 7.311839D-01  Symmetry=e+

 Vector   53  Occ=0.000000D+00  E= 7.375768D-01  Symmetry=e+

 Vector   54  Occ=0.000000D+00  E= 7.375768D-01  Symmetry=e+

 Vector   55  Occ=0.000000D+00  E= 7.384052D-01  Symmetry=a

 Vector   56  Occ=0.000000D+00  E= 7.414115D-01  Symmetry=a

 Vector   57  Occ=0.000000D+00  E= 7.975415D-01  Symmetry=a

 Vector   58  Occ=0.000000D+00  E= 8.005940D-01  Symmetry=e+

 Vector   59  Occ=0.000000D+00  E= 8.005940D-01  Symmetry=e+

 Vector   60  Occ=0.000000D+00  E= 8.352793D-01  Symmetry=e+

 Vector   61  Occ=0.000000D+00  E= 8.352793D-01  Symmetry=e+

 Vector   62  Occ=0.000000D+00  E= 9.823278D-01  Symmetry=a

 Vector   63  Occ=0.000000D+00  E= 1.002662D+00  Symmetry=a

 Vector   64  Occ=0.000000D+00  E= 1.037966D+00  Symmetry=e+

 Vector   65  Occ=0.000000D+00  E= 1.037966D+00  Symmetry=e+

 Vector   66  Occ=0.000000D+00  E= 1.180939D+00  Symmetry=e+

 Vector   67  Occ=0.000000D+00  E= 1.180939D+00  Symmetry=e+

 Vector   68  Occ=0.000000D+00  E= 1.193478D+00  Symmetry=a

 Vector   69  Occ=0.000000D+00  E= 1.308333D+00  Symmetry=a

 Vector   70  Occ=0.000000D+00  E= 1.339710D+00  Symmetry=e+

 Vector   71  Occ=0.000000D+00  E= 1.339710D+00  Symmetry=e+

 Vector   72  Occ=0.000000D+00  E= 1.641980D+00  Symmetry=e+

 Vector   73  Occ=0.000000D+00  E= 1.641980D+00  Symmetry=e+

 Vector   74  Occ=0.000000D+00  E= 1.856644D+00  Symmetry=a

 Vector   75  Occ=0.000000D+00  E= 1.981473D+00  Symmetry=a

 Vector   76  Occ=0.000000D+00  E= 2.008705D+00  Symmetry=e+

 Vector   77  Occ=0.000000D+00  E= 2.008705D+00  Symmetry=e+

 Vector   78  Occ=0.000000D+00  E= 2.975352D+00  Symmetry=e+

 Vector   79  Occ=0.000000D+00  E= 2.975352D+00  Symmetry=e+

 Vector   80  Occ=0.000000D+00  E= 3.188672D+00  Symmetry=e+

 Vector   81  Occ=0.000000D+00  E= 3.188672D+00  Symmetry=e+

 Vector   82  Occ=0.000000D+00  E= 3.640237D+00  Symmetry=a

     Multipole analysis of the density
     ---------------------------------

     L   x y z        total         alpha         beta         nuclear
     -   - - -        -----         -----         ----         -------
     0   0 0 0     -0.000000    -33.000000    -33.000000     66.000000

     1   1 0 0      0.000000      0.000000      0.000000     -0.000000
     1   0 1 0     -0.000000     -0.000000     -0.000000      0.000000
     1   0 0 1     -0.053503     -0.083326     -0.083326      0.113149

     2   2 0 0    -34.742088   -157.535279   -157.535279    280.328470
     2   1 1 0      0.000000      0.000000      0.000000     -0.000000
     2   1 0 1      0.000000     -0.000000     -0.000000      0.000000
     2   0 2 0    -34.742088   -157.535279   -157.535279    280.328470
     2   0 1 1     -0.000000     -0.000000     -0.000000      0.000000

         Total DFT energy =    -1515.162610191971
         Total DFT energy =    -1515.162610133825
         Total DFT energy =    -1515.162610181757
         Total DFT energy =    -1515.162610173402
         Total DFT energy =    -1515.162603307944
         Total DFT energy =    -1515.162603378439
         Total DFT energy =    -1515.162617037519
         Total DFT energy =    -1515.162617034081
         Total DFT energy =    -1515.162617054563
         Total DFT energy =    -1515.162617021378
         Total DFT energy =    -1515.162604570773
         Total DFT energy =    -1515.162604144763
         Total DFT energy =    -1515.162615327232
         Total DFT energy =    -1515.162615435058
         Total DFT energy =    -1515.162617128538
         Total DFT energy =    -1515.162617114082
         Total DFT energy =    -1515.162617856538
         Total DFT energy =    -1515.162617972078
 Zero-Point correction to Energy  =    6.189 kcal/mol  (  0.009862 au)
 Thermal correction to Energy     =    9.662 kcal/mol  (  0.015397 au)
 Thermal correction to Enthalpy   =   10.254 kcal/mol  (  0.016341 au)
 Total Entropy                    =   75.587 cal/mol-K
   - Translational                =   40.614 cal/mol-K (mol. weight = 135.9050)
   - Rotational                   =   25.898 cal/mol-K (symmetry #  =        3)
   - Vibrational                  =    9.075 cal/mol-K
   - Translational                  =    2.979 cal/mol-K
   - Rotational                     =    2.979 cal/mol-K
   - Vibrational                    =   11.770 cal/mol-K
 P.Frequency       -0.00        0.00        0.00        0.00        0.00        0.00
 P.Frequency      219.10      219.10      310.54      350.73      350.73      461.27
 P.Frequency      700.41      700.41     1018.92

 Normal Eigenvalue ||           Projected Infra Red Intensities
  Mode   [cm**-1]  || [atomic units] [(debye/angs)**2] [(KM/mol)] [arbitrary]
 ------ ---------- || -------------- ----------------- ---------- -----------
    1       -0.000 ||    0.000000           0.000         0.000       0.000
    2        0.000 ||    0.000002           0.000         0.002       0.000
    3        0.000 ||    0.000001           0.000         0.001       0.000
    4        0.000 ||    0.000002           0.000         0.002       0.000
    5        0.000 ||    0.000001           0.000         0.001       0.000
    6        0.000 ||    0.000002           0.000         0.002       0.000
    7      219.100 ||    0.000014           0.000         0.014       0.003
    8      219.100 ||    0.000014           0.000         0.014       0.003
    9      310.536 ||    0.000217           0.005         0.211       0.040
   10      350.725 ||    0.005500           0.127         5.362       1.023
   11      350.725 ||    0.005500           0.127         5.362       1.023
   12      461.273 ||    0.004966           0.115         4.842       0.924
   13      700.407 ||    0.284777           6.570       277.615      52.956
   14      700.407 ||    0.284777           6.570       277.615      52.956
   15     1018.921 ||    0.220871           5.096       215.316      41.072
 ----------------------------------------------------------------------------

 Total times  cpu:      150.4s     wall:      131.7s
