============================== echo of input deck ==============================
ECHO

start molecule

#MEMORY
memory 3584 mb

#TITLE
title "CFCl4"

charge 0

#GEOMETRY
geometry units angstroms print xyz autosym
C          0.01249        0.78594        0.06926
Cl         1.79048        0.78594        0.06926
Cl        -0.58017        1.81550       -1.25361
F         -0.44802        1.27613        1.27601
Cl        -0.58017       -0.87448       -0.16093
end

BASIS "ao basis" SPHERICAL PRINT
#BASIS SET: (7s,4p,1d) -> [3s,2p,1d]
C    S
   1238.4016938              0.54568832082E-02
    186.29004992             0.40638409211E-01
     42.251176346            0.18025593888
     11.676557932            0.46315121755
      3.5930506482           0.44087173314
C    S
      0.40245147363          1.0000000
C    S
      0.13090182668          1.0000000
C    P
      9.4680970621           0.38387871728E-01
      2.0103545142           0.21117025112
      0.54771004707          0.51328172114
C    P
      0.15268613795          1.0000000
C    D
      0.8000000              1.0000000
#BASIS SET: (7s,4p,1d) -> [3s,2p,1d]
F    S
   2894.8325990             -0.53408255515E-02
    435.41939120            -0.39904258866E-01
     98.843328866           -0.17912768038
     27.485198001           -0.46758090825
      8.5405498171          -0.44653131020
F    S
      1.0654578038           1.0000000
F    S
      0.33247346748          1.0000000
F    P
     22.696633924           -0.45212874436E-01
      4.9872339257          -0.23754317067
      1.3491613954          -0.51287353587
F    P
      0.34829881977          1.0000000
F    D
      1.4000000              1.0000000
#BASIS SET: (10s,7p,1d) -> [4s,3p,1d]
Cl    S
  10449.8275660              0.19708362484E-02
   1571.7365221              0.14754727977E-01
    357.12065523             0.66679112875E-01
    100.25185935             0.17228924084
     30.812727554            0.15883786100
Cl    S
     51.923789434           -0.10009298909
      5.7045760975           0.60841752753
      2.3508376809           0.54352153355
Cl    S
      0.44605124672          1.0000000
Cl    S
      0.16848856190          1.0000000
Cl    P
    307.66790569            -0.87801484118E-02
     72.102015515           -0.63563355471E-01
     22.532680262           -0.24016428276
      7.8991765444          -0.47798866557
      2.8767268321          -0.38515850005
Cl    P
      0.77459363955          1.0000000
Cl    P
      0.21037699698          1.0000000
Cl    D
      0.6500000              1.0000000
END

#DFT
dft
  grid medium
  convergence energy 1e-07
  mult 1
  iterations 30
  xc xcamb88 1.00 lyp 1.0 hfexch 1.00
  cam 0.33 cam_alpha 0.0 cam_beta 1.0
end

#OPT
driver
  default
  maxiter 100
end

set driver:linopt 0

#TASK
task dft optimize
task dft freq numerical

================================================================================

         Total DFT energy =    -1517.053547338588
@ Step       Energy      Delta E   Gmax     Grms     Xrms     Xmax   Walltime
@ ---- ---------------- -------- -------- -------- -------- -------- --------
@    0   -1517.05354734  0.0D+00  0.04241  0.01526  0.00000  0.00000     17.1
         Total DFT energy =    -1517.056248037492
@    1   -1517.05624804 -2.7D-03  0.01562  0.00559  0.05490  0.16845     33.6
         Total DFT energy =    -1517.056740367331
@    2   -1517.05674037 -4.9D-04  0.00146  0.00068  0.02409  0.06074     48.7
         Total DFT energy =    -1517.056753415300
@    3   -1517.05675342 -1.3D-05  0.00027  0.00012  0.00379  0.00749     61.3
         Total DFT energy =    -1517.056753583068
@    4   -1517.05675358 -1.7D-07  0.00009  0.00003  0.00030  0.00059     71.4
@    4   -1517.05675358 -1.7D-07  0.00009  0.00003  0.00030  0.00059     71.4

 Output coordinates in angstroms (scale by  1.889725989 to convert to a.u.)

  No.       Tag          Charge          X              Y              Z
 ---- ---------------- ---------- -------------- -------------- --------------
    1 C                    6.0000     0.00000000     0.00000000     0.25975604
    2 Cl                  17.0000    -0.11493703    -1.66475621    -0.29918583
    3 Cl                  17.0000     1.49918969     0.73283972    -0.29918583
    4 F                    9.0000     0.00000000    -0.00000000     1.58922113
    5 Cl                  17.0000    -1.38425266     0.93191649    -0.29918583

         Total DFT energy =    -1517.056753595029

                       DFT Final Molecular Orbital Analysis
                       ------------------------------------

 Vector    1  Occ=2.000000D+00  E=-1.008996D+02  Symmetry=e+

 Vector    3  Occ=2.000000D+00  E=-1.008995D+02  Symmetry=a

 Vector    4  Occ=2.000000D+00  E=-2.451469D+01  Symmetry=a

 Vector    5  Occ=2.000000D+00  E=-1.033254D+01  Symmetry=a

 Vector    6  Occ=2.000000D+00  E=-9.383124D+00  Symmetry=e+

 Vector    7  Occ=2.000000D+00  E=-9.383124D+00  Symmetry=e+

 Vector    8  Occ=2.000000D+00  E=-9.383054D+00  Symmetry=a

 Vector    9  Occ=2.000000D+00  E=-7.222507D+00  Symmetry=e+

 Vector   10  Occ=2.000000D+00  E=-7.222507D+00  Symmetry=e+

 Vector   11  Occ=2.000000D+00  E=-7.222477D+00  Symmetry=a

 Vector   12  Occ=2.000000D+00  E=-7.209389D+00  Symmetry=e+

 Vector   13  Occ=2.000000D+00  E=-7.209389D+00  Symmetry=e+

 Vector   14  Occ=2.000000D+00  E=-7.209380D+00  Symmetry=a

 Vector   15  Occ=2.000000D+00  E=-7.209211D+00  Symmetry=a

 Vector   16  Occ=2.000000D+00  E=-7.209188D+00  Symmetry=e+

 Vector   17  Occ=2.000000D+00  E=-7.209188D+00  Symmetry=e+

 Vector   18  Occ=2.000000D+00  E=-1.346886D+00  Symmetry=a

 Vector   19  Occ=2.000000D+00  E=-1.051235D+00  Symmetry=a

 Vector   20  Occ=2.000000D+00  E=-9.623773D-01  Symmetry=e+

 Vector   21  Occ=2.000000D+00  E=-9.623773D-01  Symmetry=e+

 Vector   22  Occ=2.000000D+00  E=-7.588160D-01  Symmetry=a

 Vector   23  Occ=2.000000D+00  E=-6.581068D-01  Symmetry=a

 Vector   24  Occ=2.000000D+00  E=-6.481156D-01  Symmetry=e+

 Vector   25  Occ=2.000000D+00  E=-6.481156D-01  Symmetry=e+

 Vector   26  Occ=2.000000D+00  E=-5.229457D-01  Symmetry=e+

 Vector   27  Occ=2.000000D+00  E=-5.229457D-01  Symmetry=e+

 Vector   28  Occ=2.000000D+00  E=-4.705817D-01  Symmetry=a

 Vector   29  Occ=2.000000D+00  E=-4.552047D-01  Symmetry=e+

 Vector   30  Occ=2.000000D+00  E=-4.552047D-01  Symmetry=e+

 Vector   31  Occ=2.000000D+00  E=-4.235263D-01  Symmetry=e+

 Vector   32  Occ=2.000000D+00  E=-4.235263D-01  Symmetry=e+

 Vector   33  Occ=2.000000D+00  E=-4.083604D-01  Symmetry=a

 Vector   34  Occ=0.000000D+00  E= 7.209815D-02  Symmetry=a

 Vector   35  Occ=0.000000D+00  E= 1.209909D-01  Symmetry=e+

 Vector   36  Occ=0.000000D+00  E= 1.209909D-01  Symmetry=e+

 Vector   37  Occ=0.000000D+00  E= 2.014620D-01  Symmetry=a

 Vector   38  Occ=0.000000D+00  E= 4.323990D-01  Symmetry=a

 Vector   39  Occ=0.000000D+00  E= 4.943065D-01  Symmetry=e+

 Vector   40  Occ=0.000000D+00  E= 4.943065D-01  Symmetry=e+

 Vector   41  Occ=0.000000D+00  E= 5.382337D-01  Symmetry=a

 Vector   42  Occ=0.000000D+00  E= 6.189240D-01  Symmetry=e+

 Vector   43  Occ=0.000000D+00  E= 6.189240D-01  Symmetry=e+

 Vector   44  Occ=0.000000D+00  E= 7.174414D-01  Symmetry=a

 Vector   45  Occ=0.000000D+00  E= 7.525818D-01  Symmetry=e+

 Vector   46  Occ=0.000000D+00  E= 7.525818D-01  Symmetry=e+

 Vector   47  Occ=0.000000D+00  E= 8.168150D-01  Symmetry=a

 Vector   48  Occ=0.000000D+00  E= 8.175356D-01  Symmetry=e+

 Vector   49  Occ=0.000000D+00  E= 8.175356D-01  Symmetry=e+

 Vector   50  Occ=0.000000D+00  E= 8.383665D-01  Symmetry=a

 Vector   51  Occ=0.000000D+00  E= 8.466664D-01  Symmetry=e+

 Vector   52  Occ=0.000000D+00  E= 8.466664D-01  Symmetry=e+

 Vector   53  Occ=0.000000D+00  E= 8.590039D-01  Symmetry=a

 Vector   54  Occ=0.000000D+00  E= 8.686332D-01  Symmetry=e+

 Vector   55  Occ=0.000000D+00  E= 8.686332D-01  Symmetry=e+

 Vector   56  Occ=0.000000D+00  E= 8.763256D-01  Symmetry=a

 Vector   57  Occ=0.000000D+00  E= 9.119196D-01  Symmetry=e+

 Vector   58  Occ=0.000000D+00  E= 9.119196D-01  Symmetry=e+

 Vector   59  Occ=0.000000D+00  E= 9.154582D-01  Symmetry=a

 Vector   60  Occ=0.000000D+00  E= 9.511395D-01  Symmetry=e+

 Vector   61  Occ=0.000000D+00  E= 9.511395D-01  Symmetry=e+

 Vector   62  Occ=0.000000D+00  E= 1.118560D+00  Symmetry=a

 Vector   63  Occ=0.000000D+00  E= 1.119777D+00  Symmetry=a

 Vector   64  Occ=0.000000D+00  E= 1.172075D+00  Symmetry=e+

 Vector   65  Occ=0.000000D+00  E= 1.172075D+00  Symmetry=e+

 Vector   66  Occ=0.000000D+00  E= 1.333022D+00  Symmetry=a

 Vector   67  Occ=0.000000D+00  E= 1.341748D+00  Symmetry=e+

 Vector   68  Occ=0.000000D+00  E= 1.341748D+00  Symmetry=e+

 Vector   69  Occ=0.000000D+00  E= 1.434362D+00  Symmetry=a

 Vector   70  Occ=0.000000D+00  E= 1.480543D+00  Symmetry=e+

 Vector   71  Occ=0.000000D+00  E= 1.480543D+00  Symmetry=e+

 Vector   72  Occ=0.000000D+00  E= 1.790042D+00  Symmetry=e+

 Vector   73  Occ=0.000000D+00  E= 1.790042D+00  Symmetry=e+

 Vector   74  Occ=0.000000D+00  E= 1.952097D+00  Symmetry=a

 Vector   75  Occ=0.000000D+00  E= 2.164684D+00  Symmetry=a

 Vector   76  Occ=0.000000D+00  E= 2.166586D+00  Symmetry=e+

 Vector   77  Occ=0.000000D+00  E= 2.166586D+00  Symmetry=e+

 Vector   78  Occ=0.000000D+00  E= 3.123699D+00  Symmetry=e+

 Vector   79  Occ=0.000000D+00  E= 3.123699D+00  Symmetry=e+

 Vector   80  Occ=0.000000D+00  E= 3.372222D+00  Symmetry=e+

 Vector   81  Occ=0.000000D+00  E= 3.372222D+00  Symmetry=e+

 Vector   82  Occ=0.000000D+00  E= 3.827690D+00  Symmetry=a

     Multipole analysis of the density
     ---------------------------------

     L   x y z        total         alpha         beta         nuclear
     -   - - -        -----         -----         ----         -------
     0   0 0 0     -0.000000    -33.000000    -33.000000     66.000000

     1   1 0 0     -0.000000     -0.000000     -0.000000     -0.000000
     1   0 1 0     -0.000000     -0.000000     -0.000000      0.000000
     1   0 0 1     -0.136910     -0.638254     -0.638254      1.139598

     2   2 0 0    -34.421420   -143.997610   -143.997610    253.573800
     2   1 1 0     -0.000000     -0.000000     -0.000000      0.000000
     2   1 0 1     -0.000000     -0.000000     -0.000000      0.000000
     2   0 2 0    -34.421420   -143.997610   -143.997610    253.573800
     2   0 1 1      0.000000      0.000000      0.000000     -0.000000

         Total DFT energy =    -1517.056738638633
         Total DFT energy =    -1517.056738678118
         Total DFT energy =    -1517.056738725888
         Total DFT energy =    -1517.056738607635
         Total DFT energy =    -1517.056731125611
         Total DFT energy =    -1517.056732994132
         Total DFT energy =    -1517.056751138677
         Total DFT energy =    -1517.056751134911
         Total DFT energy =    -1517.056751131172
         Total DFT energy =    -1517.056751139165
         Total DFT energy =    -1517.056734355724
         Total DFT energy =    -1517.056732250074
         Total DFT energy =    -1517.056746639753
         Total DFT energy =    -1517.056747051756
         Total DFT energy =    -1517.056750230568
         Total DFT energy =    -1517.056749987877
         Total DFT energy =    -1517.056751736402
         Total DFT energy =    -1517.056751806868
 Zero-Point correction to Energy  =    7.464 kcal/mol  (  0.011894 au)
 Thermal correction to Energy     =   10.640 kcal/mol  (  0.016955 au)
 Thermal correction to Enthalpy   =   11.232 kcal/mol  (  0.017899 au)
 Total Entropy                    =   73.501 cal/mol-K
   - Translational                =   40.614 cal/mol-K (mol. weight = 135.9050)
   - Rotational                   =   25.614 cal/mol-K (symmetry #  =        3)
   - Vibrational                  =    7.273 cal/mol-K
   - Translational                  =    2.979 cal/mol-K
   - Rotational                     =    2.979 cal/mol-K
   - Vibrational                    =   10.309 cal/mol-K
 P.Frequency       -0.00       -0.00       -0.00       -0.00        0.00        0.00
 P.Frequency      249.91      249.91      362.58      410.26      410.26      560.10
 P.Frequency      895.11      895.11     1190.24

 Normal Eigenvalue ||           Projected Infra Red Intensities
  Mode   [cm**-1]  || [atomic units] [(debye/angs)**2] [(KM/mol)] [arbitrary]
 ------ ---------- || -------------- ----------------- ---------- -----------
    1       -0.000 ||    0.000019           0.000         0.019       0.004
    2       -0.000 ||    0.000019           0.000         0.019       0.004
    3       -0.000 ||    0.000000           0.000         0.000       0.000
    4       -0.000 ||    0.000010           0.000         0.010       0.002
    5        0.000 ||    0.000000           0.000         0.000       0.000
    6        0.000 ||    0.000007           0.000         0.007       0.001
    7      249.913 ||    0.000009           0.000         0.009       0.002
    8      249.913 ||    0.000009           0.000         0.009       0.002
    9      362.578 ||    0.000112           0.003         0.109       0.022
   10      410.259 ||    0.000134           0.003         0.130       0.026
   11      410.259 ||    0.000134           0.003         0.130       0.026
   12      560.101 ||    0.003383           0.078         3.298       0.670
   13      895.113 ||    0.266383           6.146       259.684      52.727
   14      895.113 ||    0.266383           6.146       259.684      52.727
   15     1190.245 ||    0.221214           5.104       215.651      43.786
 ----------------------------------------------------------------------------

 Total times  cpu:      612.3s     wall:      592.1s
