============================== echo of input deck ==============================
ECHO

start molecule

#MEMORY
memory 3584 mb

#TITLE
title "CFCl4"

charge 0

#GEOMETRY
geometry units angstroms print xyz autosym
C          0.01249        0.78594        0.06926
Cl         1.79048        0.78594        0.06926
Cl        -0.58017        1.81550       -1.25361
F         -0.44802        1.27613        1.27601
Cl        -0.58017       -0.87448       -0.16093
end

BASIS "ao basis" SPHERICAL PRINT
#BASIS SET: (7s,4p,1d) -> [3s,2p,1d]
C    S
   1238.4016938              0.54568832082E-02
    186.29004992             0.40638409211E-01
     42.251176346            0.18025593888
     11.676557932            0.46315121755
      3.5930506482           0.44087173314
C    S
      0.40245147363          1.0000000
C    S
      0.13090182668          1.0000000
C    P
      9.4680970621           0.38387871728E-01
      2.0103545142           0.21117025112
      0.54771004707          0.51328172114
C    P
      0.15268613795          1.0000000
C    D
      0.8000000              1.0000000
#BASIS SET: (7s,4p,1d) -> [3s,2p,1d]
F    S
   2894.8325990             -0.53408255515E-02
    435.41939120            -0.39904258866E-01
     98.843328866           -0.17912768038
     27.485198001           -0.46758090825
      8.5405498171          -0.44653131020
F    S
      1.0654578038           1.0000000
F    S
      0.33247346748          1.0000000
F    P
     22.696633924           -0.45212874436E-01
      4.9872339257          -0.23754317067
      1.3491613954          -0.51287353587
F    P
      0.34829881977          1.0000000
F    D
      1.4000000              1.0000000
#BASIS SET: (10s,7p,1d) -> [4s,3p,1d]
Cl    S
  10449.8275660              0.19708362484E-02
   1571.7365221              0.14754727977E-01
    357.12065523             0.66679112875E-01
    100.25185935             0.17228924084
     30.812727554            0.15883786100
Cl    S
     51.923789434           -0.10009298909
      5.7045760975           0.60841752753
      2.3508376809           0.54352153355
Cl    S
      0.44605124672          1.0000000
Cl    S
      0.16848856190          1.0000000
Cl    P
    307.66790569            -0.87801484118E-02
     72.102015515           -0.63563355471E-01
     22.532680262           -0.24016428276
      7.8991765444          -0.47798866557
      2.8767268321          -0.38515850005
Cl    P
      0.77459363955          1.0000000
Cl    P
      0.21037699698          1.0000000
Cl    D
      0.6500000              1.0000000
END

#DFT
dft
  grid medium
  convergence energy 1e-07
  mult 1
  iterations 30
  xc mpw1k
end

#OPT
driver
  default
  maxiter 100
end

set driver:linopt 0

#TASK
task dft optimize
task dft freq numerical

================================================================================

         Total DFT energy =    -1517.994152230466
@ Step       Energy      Delta E   Gmax     Grms     Xrms     Xmax   Walltime
@ ---- ---------------- -------- -------- -------- -------- -------- --------
@    0   -1517.99415223  0.0D+00  0.05180  0.01863  0.00000  0.00000      4.5
         Total DFT energy =    -1517.998767945111
@    1   -1517.99876795 -4.6D-03  0.00702  0.00227  0.03931  0.12066      8.7
         Total DFT energy =    -1517.998828814634
@    2   -1517.99882881 -6.1D-05  0.00157  0.00051  0.00542  0.01708     12.3
         Total DFT energy =    -1517.998831687944
@    3   -1517.99883169 -2.9D-06  0.00006  0.00002  0.00102  0.00332     15.6
         Total DFT energy =    -1517.998831714556
@    4   -1517.99883171 -2.7D-08  0.00001  0.00000  0.00003  0.00010     18.8
@    4   -1517.99883171 -2.7D-08  0.00001  0.00000  0.00003  0.00010     18.8

 Output coordinates in angstroms (scale by  1.889725989 to convert to a.u.)

  No.       Tag          Charge          X              Y              Z
 ---- ---------------- ---------- -------------- -------------- --------------
    1 C                    6.0000     0.00000000     0.00000000     0.26210564
    2 Cl                  17.0000    -0.11465795    -1.66071399    -0.29688179
    3 Cl                  17.0000     1.49554948     0.73106030    -0.29688179
    4 F                    9.0000     0.00000000     0.00000000     1.57995943
    5 Cl                  17.0000    -1.38089153     0.92965369    -0.29688179

         Total DFT energy =    -1517.998831717449

                       DFT Final Molecular Orbital Analysis
                       ------------------------------------

 Vector    1  Occ=2.000000D+00  E=-1.024907D+02  Symmetry=e+

 Vector    3  Occ=2.000000D+00  E=-1.024907D+02  Symmetry=a

 Vector    4  Occ=2.000000D+00  E=-2.521704D+01  Symmetry=a

 Vector    5  Occ=2.000000D+00  E=-1.075252D+01  Symmetry=a

 Vector    6  Occ=2.000000D+00  E=-9.827478D+00  Symmetry=e+

 Vector    7  Occ=2.000000D+00  E=-9.827478D+00  Symmetry=e+

 Vector    8  Occ=2.000000D+00  E=-9.827445D+00  Symmetry=a

 Vector    9  Occ=2.000000D+00  E=-7.507860D+00  Symmetry=e+

 Vector   10  Occ=2.000000D+00  E=-7.507860D+00  Symmetry=e+

 Vector   11  Occ=2.000000D+00  E=-7.507838D+00  Symmetry=a

 Vector   12  Occ=2.000000D+00  E=-7.498541D+00  Symmetry=e+

 Vector   13  Occ=2.000000D+00  E=-7.498541D+00  Symmetry=e+

 Vector   14  Occ=2.000000D+00  E=-7.498535D+00  Symmetry=a

 Vector   15  Occ=2.000000D+00  E=-7.498471D+00  Symmetry=a

 Vector   16  Occ=2.000000D+00  E=-7.498455D+00  Symmetry=e+

 Vector   17  Occ=2.000000D+00  E=-7.498455D+00  Symmetry=e+

 Vector   18  Occ=2.000000D+00  E=-1.414428D+00  Symmetry=a

 Vector   19  Occ=2.000000D+00  E=-1.053077D+00  Symmetry=a

 Vector   20  Occ=2.000000D+00  E=-9.563216D-01  Symmetry=e+

 Vector   21  Occ=2.000000D+00  E=-9.563216D-01  Symmetry=e+

 Vector   22  Occ=2.000000D+00  E=-7.492543D-01  Symmetry=a

 Vector   23  Occ=2.000000D+00  E=-6.331980D-01  Symmetry=a

 Vector   24  Occ=2.000000D+00  E=-6.302037D-01  Symmetry=e+

 Vector   25  Occ=2.000000D+00  E=-6.302037D-01  Symmetry=e+

 Vector   26  Occ=2.000000D+00  E=-5.009186D-01  Symmetry=e+

 Vector   27  Occ=2.000000D+00  E=-5.009186D-01  Symmetry=e+

 Vector   28  Occ=2.000000D+00  E=-4.320332D-01  Symmetry=a

 Vector   29  Occ=2.000000D+00  E=-4.195257D-01  Symmetry=e+

 Vector   30  Occ=2.000000D+00  E=-4.195257D-01  Symmetry=e+

 Vector   31  Occ=2.000000D+00  E=-3.875202D-01  Symmetry=e+

 Vector   32  Occ=2.000000D+00  E=-3.875202D-01  Symmetry=e+

 Vector   33  Occ=2.000000D+00  E=-3.724224D-01  Symmetry=a

 Vector   34  Occ=0.000000D+00  E= 9.551171D-03  Symmetry=a

 Vector   35  Occ=0.000000D+00  E= 6.402643D-02  Symmetry=e+

 Vector   36  Occ=0.000000D+00  E= 6.402643D-02  Symmetry=e+

 Vector   37  Occ=0.000000D+00  E= 1.530499D-01  Symmetry=a

 Vector   38  Occ=0.000000D+00  E= 3.862506D-01  Symmetry=a

 Vector   39  Occ=0.000000D+00  E= 4.420221D-01  Symmetry=e+

 Vector   40  Occ=0.000000D+00  E= 4.420221D-01  Symmetry=e+

 Vector   41  Occ=0.000000D+00  E= 5.103605D-01  Symmetry=a

 Vector   42  Occ=0.000000D+00  E= 5.704307D-01  Symmetry=e+

 Vector   43  Occ=0.000000D+00  E= 5.704307D-01  Symmetry=e+

 Vector   44  Occ=0.000000D+00  E= 6.708952D-01  Symmetry=a

 Vector   45  Occ=0.000000D+00  E= 6.960852D-01  Symmetry=e+

 Vector   46  Occ=0.000000D+00  E= 6.960852D-01  Symmetry=e+

 Vector   47  Occ=0.000000D+00  E= 7.632507D-01  Symmetry=a

 Vector   48  Occ=0.000000D+00  E= 7.683285D-01  Symmetry=e+

 Vector   49  Occ=0.000000D+00  E= 7.683285D-01  Symmetry=e+

 Vector   50  Occ=0.000000D+00  E= 7.889020D-01  Symmetry=a

 Vector   51  Occ=0.000000D+00  E= 7.927308D-01  Symmetry=e+

 Vector   52  Occ=0.000000D+00  E= 7.927308D-01  Symmetry=e+

 Vector   53  Occ=0.000000D+00  E= 8.029746D-01  Symmetry=a

 Vector   54  Occ=0.000000D+00  E= 8.220895D-01  Symmetry=e+

 Vector   55  Occ=0.000000D+00  E= 8.220895D-01  Symmetry=e+

 Vector   56  Occ=0.000000D+00  E= 8.376201D-01  Symmetry=a

 Vector   57  Occ=0.000000D+00  E= 8.732303D-01  Symmetry=e+

 Vector   58  Occ=0.000000D+00  E= 8.732303D-01  Symmetry=e+

 Vector   59  Occ=0.000000D+00  E= 8.753031D-01  Symmetry=a

 Vector   60  Occ=0.000000D+00  E= 9.154696D-01  Symmetry=e+

 Vector   61  Occ=0.000000D+00  E= 9.154696D-01  Symmetry=e+

 Vector   62  Occ=0.000000D+00  E= 1.086966D+00  Symmetry=a

 Vector   63  Occ=0.000000D+00  E= 1.091419D+00  Symmetry=a

 Vector   64  Occ=0.000000D+00  E= 1.141538D+00  Symmetry=e+

 Vector   65  Occ=0.000000D+00  E= 1.141538D+00  Symmetry=e+

 Vector   66  Occ=0.000000D+00  E= 1.302670D+00  Symmetry=a

 Vector   67  Occ=0.000000D+00  E= 1.317820D+00  Symmetry=e+

 Vector   68  Occ=0.000000D+00  E= 1.317820D+00  Symmetry=e+

 Vector   69  Occ=0.000000D+00  E= 1.416741D+00  Symmetry=a

 Vector   70  Occ=0.000000D+00  E= 1.471519D+00  Symmetry=e+

 Vector   71  Occ=0.000000D+00  E= 1.471519D+00  Symmetry=e+

 Vector   72  Occ=0.000000D+00  E= 1.747684D+00  Symmetry=e+

 Vector   73  Occ=0.000000D+00  E= 1.747684D+00  Symmetry=e+

 Vector   74  Occ=0.000000D+00  E= 1.934369D+00  Symmetry=a

 Vector   75  Occ=0.000000D+00  E= 2.139145D+00  Symmetry=e+

 Vector   76  Occ=0.000000D+00  E= 2.139145D+00  Symmetry=e+

 Vector   77  Occ=0.000000D+00  E= 2.166923D+00  Symmetry=a

 Vector   78  Occ=0.000000D+00  E= 3.112063D+00  Symmetry=e+

 Vector   79  Occ=0.000000D+00  E= 3.112063D+00  Symmetry=e+

 Vector   80  Occ=0.000000D+00  E= 3.381764D+00  Symmetry=e+

 Vector   81  Occ=0.000000D+00  E= 3.381764D+00  Symmetry=e+

 Vector   82  Occ=0.000000D+00  E= 3.860045D+00  Symmetry=a

     Multipole analysis of the density
     ---------------------------------

     L   x y z        total         alpha         beta         nuclear
     -   - - -        -----         -----         ----         -------
     0   0 0 0     -0.000000    -33.000000    -33.000000     66.000000

     1   1 0 0      0.000000      0.000000      0.000000      0.000000
     1   0 1 0     -0.000000     -0.000000     -0.000000      0.000000
     1   0 0 1     -0.137694     -0.684234     -0.684234      1.230773

     2   2 0 0    -34.548230   -143.446056   -143.446056    252.343882
     2   1 1 0      0.000000      0.000000      0.000000      0.000000
     2   1 0 1     -0.000000     -0.000000     -0.000000      0.000000
     2   0 2 0    -34.548230   -143.446056   -143.446056    252.343882
     2   0 1 1      0.000000      0.000000      0.000000      0.000000

         Total DFT energy =    -1517.998817323938
         Total DFT energy =    -1517.998817414874
         Total DFT energy =    -1517.998817417082
         Total DFT energy =    -1517.998817313107
         Total DFT energy =    -1517.998809501734
         Total DFT energy =    -1517.998810417480
         Total DFT energy =    -1517.998829858975
         Total DFT energy =    -1517.998829865905
         Total DFT energy =    -1517.998829861071
         Total DFT energy =    -1517.998829860775
         Total DFT energy =    -1517.998811549287
         Total DFT energy =    -1517.998810706498
         Total DFT energy =    -1517.998825671999
         Total DFT energy =    -1517.998825751026
         Total DFT energy =    -1517.998829009231
         Total DFT energy =    -1517.998828965099
         Total DFT energy =    -1517.998830642981
         Total DFT energy =    -1517.998830616596
 Zero-Point correction to Energy  =    7.593 kcal/mol  (  0.012100 au)
 Thermal correction to Energy     =   10.736 kcal/mol  (  0.017109 au)
 Thermal correction to Enthalpy   =   11.328 kcal/mol  (  0.018053 au)
 Total Entropy                    =   73.275 cal/mol-K
   - Translational                =   40.614 cal/mol-K (mol. weight = 135.9050)
   - Rotational                   =   25.595 cal/mol-K (symmetry #  =        3)
   - Vibrational                  =    7.065 cal/mol-K
   - Translational                  =    2.979 cal/mol-K
   - Rotational                     =    2.979 cal/mol-K
   - Vibrational                    =   10.175 cal/mol-K
 P.Frequency       -0.00       -0.00        0.00        0.00        0.00        0.00
 P.Frequency      255.61      255.61      368.49      421.16      421.16      568.07
 P.Frequency      902.11      902.11     1219.55

 Normal Eigenvalue ||           Projected Infra Red Intensities
  Mode   [cm**-1]  || [atomic units] [(debye/angs)**2] [(KM/mol)] [arbitrary]
 ------ ---------- || -------------- ----------------- ---------- -----------
    1       -0.000 ||    0.000010           0.000         0.010       0.002
    2       -0.000 ||    0.000008           0.000         0.008       0.001
    3        0.000 ||    0.000019           0.000         0.018       0.003
    4        0.000 ||    0.000000           0.000         0.000       0.000
    5        0.000 ||    0.000000           0.000         0.000       0.000
    6        0.000 ||    0.000019           0.000         0.019       0.004
    7      255.611 ||    0.000003           0.000         0.003       0.001
    8      255.611 ||    0.000003           0.000         0.003       0.001
    9      368.485 ||    0.000086           0.002         0.084       0.016
   10      421.161 ||    0.000047           0.001         0.046       0.009
   11      421.161 ||    0.000047           0.001         0.046       0.009
   12      568.070 ||    0.003481           0.080         3.394       0.639
   13      902.108 ||    0.286603           6.612       279.395      52.642
   14      902.108 ||    0.286603           6.612       279.395      52.642
   15     1219.553 ||    0.239726           5.531       233.697      44.032
 ----------------------------------------------------------------------------

 Total times  cpu:      166.1s     wall:      147.1s
