============================== echo of input deck ==============================
ECHO

start molecule

#MEMORY
memory 3584 mb

#TITLE
title "CFCl4"

charge 0

#GEOMETRY
geometry units angstroms print xyz autosym
C          0.01249        0.78594        0.06926
Cl         1.79048        0.78594        0.06926
Cl        -0.58017        1.81550       -1.25361
F         -0.44802        1.27613        1.27601
Cl        -0.58017       -0.87448       -0.16093
end

BASIS "ao basis" SPHERICAL PRINT
#BASIS SET: (7s,4p,1d) -> [3s,2p,1d]
C    S
   1238.4016938              0.54568832082E-02
    186.29004992             0.40638409211E-01
     42.251176346            0.18025593888
     11.676557932            0.46315121755
      3.5930506482           0.44087173314
C    S
      0.40245147363          1.0000000
C    S
      0.13090182668          1.0000000
C    P
      9.4680970621           0.38387871728E-01
      2.0103545142           0.21117025112
      0.54771004707          0.51328172114
C    P
      0.15268613795          1.0000000
C    D
      0.8000000              1.0000000
#BASIS SET: (7s,4p,1d) -> [3s,2p,1d]
F    S
   2894.8325990             -0.53408255515E-02
    435.41939120            -0.39904258866E-01
     98.843328866           -0.17912768038
     27.485198001           -0.46758090825
      8.5405498171          -0.44653131020
F    S
      1.0654578038           1.0000000
F    S
      0.33247346748          1.0000000
F    P
     22.696633924           -0.45212874436E-01
      4.9872339257          -0.23754317067
      1.3491613954          -0.51287353587
F    P
      0.34829881977          1.0000000
F    D
      1.4000000              1.0000000
#BASIS SET: (10s,7p,1d) -> [4s,3p,1d]
Cl    S
  10449.8275660              0.19708362484E-02
   1571.7365221              0.14754727977E-01
    357.12065523             0.66679112875E-01
    100.25185935             0.17228924084
     30.812727554            0.15883786100
Cl    S
     51.923789434           -0.10009298909
      5.7045760975           0.60841752753
      2.3508376809           0.54352153355
Cl    S
      0.44605124672          1.0000000
Cl    S
      0.16848856190          1.0000000
Cl    P
    307.66790569            -0.87801484118E-02
     72.102015515           -0.63563355471E-01
     22.532680262           -0.24016428276
      7.8991765444          -0.47798866557
      2.8767268321          -0.38515850005
Cl    P
      0.77459363955          1.0000000
Cl    P
      0.21037699698          1.0000000
Cl    D
      0.6500000              1.0000000
END

#DFT
dft
  grid medium
  convergence energy 1e-07
  mult 1
  iterations 30
  xc m06
end

#OPT
driver
  default
  maxiter 100
end

set driver:linopt 0

#TASK
task dft optimize
task dft freq numerical

================================================================================

         Total DFT energy =    -1517.885542284768
@ Step       Energy      Delta E   Gmax     Grms     Xrms     Xmax   Walltime
@ ---- ---------------- -------- -------- -------- -------- -------- --------
@    0   -1517.88554228  0.0D+00  0.04481  0.01490  0.00000  0.00000      5.3
         Total DFT energy =    -1517.888437822457
@    1   -1517.88843782 -2.9D-03  0.01472  0.00496  0.02739  0.08850     10.1
         Total DFT energy =    -1517.888712690141
@    2   -1517.88871269 -2.7D-04  0.00333  0.00106  0.01157  0.03907     14.7
         Total DFT energy =    -1517.888725859669
@    3   -1517.88872586 -1.3D-05  0.00018  0.00007  0.00173  0.00578     18.9
         Total DFT energy =    -1517.888725908231
@    4   -1517.88872591 -4.9D-08  0.00002  0.00001  0.00014  0.00028     22.1
@    4   -1517.88872591 -4.9D-08  0.00002  0.00001  0.00014  0.00028     22.1

 Output coordinates in angstroms (scale by  1.889725989 to convert to a.u.)

  No.       Tag          Charge          X              Y              Z
 ---- ---------------- ---------- -------------- -------------- --------------
    1 C                    6.0000     0.00000000     0.00000000     0.26541025
    2 Cl                  17.0000    -0.11577922    -1.67695463    -0.30014482
    3 Cl                  17.0000     1.51017492     0.73820957    -0.30014482
    4 F                    9.0000     0.00000000    -0.00000000     1.58644389
    5 Cl                  17.0000    -1.39439570     0.93874506    -0.30014482

         Total DFT energy =    -1517.888725899708

                       DFT Final Molecular Orbital Analysis
                       ------------------------------------

 Vector    1  Occ=2.000000D+00  E=-1.017042D+02  Symmetry=e+

 Vector    3  Occ=2.000000D+00  E=-1.017041D+02  Symmetry=a

 Vector    4  Occ=2.000000D+00  E=-2.484463D+01  Symmetry=a

 Vector    5  Occ=2.000000D+00  E=-1.050427D+01  Symmetry=a

 Vector    6  Occ=2.000000D+00  E=-9.621352D+00  Symmetry=e+

 Vector    7  Occ=2.000000D+00  E=-9.621352D+00  Symmetry=e+

 Vector    8  Occ=2.000000D+00  E=-9.621310D+00  Symmetry=a

 Vector    9  Occ=2.000000D+00  E=-7.337120D+00  Symmetry=e+

 Vector   10  Occ=2.000000D+00  E=-7.337120D+00  Symmetry=e+

 Vector   11  Occ=2.000000D+00  E=-7.337091D+00  Symmetry=a

 Vector   12  Occ=2.000000D+00  E=-7.325648D+00  Symmetry=e+

 Vector   13  Occ=2.000000D+00  E=-7.325648D+00  Symmetry=e+

 Vector   14  Occ=2.000000D+00  E=-7.325641D+00  Symmetry=a

 Vector   15  Occ=2.000000D+00  E=-7.325592D+00  Symmetry=a

 Vector   16  Occ=2.000000D+00  E=-7.325568D+00  Symmetry=e+

 Vector   17  Occ=2.000000D+00  E=-7.325568D+00  Symmetry=e+

 Vector   18  Occ=2.000000D+00  E=-1.320206D+00  Symmetry=a

 Vector   19  Occ=2.000000D+00  E=-9.591016D-01  Symmetry=a

 Vector   20  Occ=2.000000D+00  E=-8.761476D-01  Symmetry=e+

 Vector   21  Occ=2.000000D+00  E=-8.761476D-01  Symmetry=e+

 Vector   22  Occ=2.000000D+00  E=-6.871276D-01  Symmetry=a

 Vector   23  Occ=2.000000D+00  E=-5.768542D-01  Symmetry=a

 Vector   24  Occ=2.000000D+00  E=-5.695690D-01  Symmetry=e+

 Vector   25  Occ=2.000000D+00  E=-5.695690D-01  Symmetry=e+

 Vector   26  Occ=2.000000D+00  E=-4.473537D-01  Symmetry=e+

 Vector   27  Occ=2.000000D+00  E=-4.473537D-01  Symmetry=e+

 Vector   28  Occ=2.000000D+00  E=-3.810955D-01  Symmetry=a

 Vector   29  Occ=2.000000D+00  E=-3.693522D-01  Symmetry=e+

 Vector   30  Occ=2.000000D+00  E=-3.693522D-01  Symmetry=e+

 Vector   31  Occ=2.000000D+00  E=-3.396273D-01  Symmetry=e+

 Vector   32  Occ=2.000000D+00  E=-3.396273D-01  Symmetry=e+

 Vector   33  Occ=2.000000D+00  E=-3.253539D-01  Symmetry=a

 Vector   34  Occ=0.000000D+00  E=-2.809759D-02  Symmetry=a

 Vector   35  Occ=0.000000D+00  E= 2.409918D-02  Symmetry=e+

 Vector   36  Occ=0.000000D+00  E= 2.409918D-02  Symmetry=e+

 Vector   37  Occ=0.000000D+00  E= 1.195033D-01  Symmetry=a

 Vector   38  Occ=0.000000D+00  E= 3.510042D-01  Symmetry=a

 Vector   39  Occ=0.000000D+00  E= 4.078726D-01  Symmetry=e+

 Vector   40  Occ=0.000000D+00  E= 4.078726D-01  Symmetry=e+

 Vector   41  Occ=0.000000D+00  E= 4.516019D-01  Symmetry=a

 Vector   42  Occ=0.000000D+00  E= 5.275685D-01  Symmetry=e+

 Vector   43  Occ=0.000000D+00  E= 5.275685D-01  Symmetry=e+

 Vector   44  Occ=0.000000D+00  E= 6.245746D-01  Symmetry=a

 Vector   45  Occ=0.000000D+00  E= 6.538719D-01  Symmetry=e+

 Vector   46  Occ=0.000000D+00  E= 6.538719D-01  Symmetry=e+

 Vector   47  Occ=0.000000D+00  E= 7.127130D-01  Symmetry=a

 Vector   48  Occ=0.000000D+00  E= 7.249240D-01  Symmetry=e+

 Vector   49  Occ=0.000000D+00  E= 7.249240D-01  Symmetry=e+

 Vector   50  Occ=0.000000D+00  E= 7.451938D-01  Symmetry=a

 Vector   51  Occ=0.000000D+00  E= 7.503947D-01  Symmetry=e+

 Vector   52  Occ=0.000000D+00  E= 7.503947D-01  Symmetry=e+

 Vector   53  Occ=0.000000D+00  E= 7.600534D-01  Symmetry=a

 Vector   54  Occ=0.000000D+00  E= 7.698444D-01  Symmetry=e+

 Vector   55  Occ=0.000000D+00  E= 7.698444D-01  Symmetry=e+

 Vector   56  Occ=0.000000D+00  E= 7.824223D-01  Symmetry=a

 Vector   57  Occ=0.000000D+00  E= 8.188462D-01  Symmetry=e+

 Vector   58  Occ=0.000000D+00  E= 8.188462D-01  Symmetry=e+

 Vector   59  Occ=0.000000D+00  E= 8.204259D-01  Symmetry=a

 Vector   60  Occ=0.000000D+00  E= 8.631645D-01  Symmetry=e+

 Vector   61  Occ=0.000000D+00  E= 8.631645D-01  Symmetry=e+

 Vector   62  Occ=0.000000D+00  E= 1.026904D+00  Symmetry=a

 Vector   63  Occ=0.000000D+00  E= 1.027413D+00  Symmetry=a

 Vector   64  Occ=0.000000D+00  E= 1.074585D+00  Symmetry=e+

 Vector   65  Occ=0.000000D+00  E= 1.074585D+00  Symmetry=e+

 Vector   66  Occ=0.000000D+00  E= 1.226750D+00  Symmetry=a

 Vector   67  Occ=0.000000D+00  E= 1.241880D+00  Symmetry=e+

 Vector   68  Occ=0.000000D+00  E= 1.241880D+00  Symmetry=e+

 Vector   69  Occ=0.000000D+00  E= 1.341279D+00  Symmetry=a

 Vector   70  Occ=0.000000D+00  E= 1.393523D+00  Symmetry=e+

 Vector   71  Occ=0.000000D+00  E= 1.393523D+00  Symmetry=e+

 Vector   72  Occ=0.000000D+00  E= 1.658279D+00  Symmetry=e+

 Vector   73  Occ=0.000000D+00  E= 1.658279D+00  Symmetry=e+

 Vector   74  Occ=0.000000D+00  E= 1.875335D+00  Symmetry=a

 Vector   75  Occ=0.000000D+00  E= 2.035582D+00  Symmetry=e+

 Vector   76  Occ=0.000000D+00  E= 2.035582D+00  Symmetry=e+

 Vector   77  Occ=0.000000D+00  E= 2.073471D+00  Symmetry=a

 Vector   78  Occ=0.000000D+00  E= 3.049996D+00  Symmetry=e+

 Vector   79  Occ=0.000000D+00  E= 3.049996D+00  Symmetry=e+

 Vector   80  Occ=0.000000D+00  E= 3.297994D+00  Symmetry=e+

 Vector   81  Occ=0.000000D+00  E= 3.297994D+00  Symmetry=e+

 Vector   82  Occ=0.000000D+00  E= 3.764789D+00  Symmetry=a

     Multipole analysis of the density
     ---------------------------------

     L   x y z        total         alpha         beta         nuclear
     -   - - -        -----         -----         ----         -------
     0   0 0 0     -0.000000    -33.000000    -33.000000     66.000000

     1   1 0 0      0.000000      0.000000      0.000000     -0.000000
     1   0 1 0     -0.000000     -0.000000     -0.000000      0.000000
     1   0 0 1     -0.142758     -0.603404     -0.603404      1.064050

     2   2 0 0    -34.288429   -145.795971   -145.795971    257.303512
     2   1 1 0     -0.000000     -0.000000     -0.000000     -0.000000
     2   1 0 1      0.000000      0.000000      0.000000      0.000000
     2   0 2 0    -34.288429   -145.795971   -145.795971    257.303512
     2   0 1 1      0.000000      0.000000      0.000000      0.000000

         Total DFT energy =    -1517.888731816657
         Total DFT energy =    -1517.888731679452
         Total DFT energy =    -1517.888732184723
         Total DFT energy =    -1517.888731354554
         Total DFT energy =    -1517.888723844044
         Total DFT energy =    -1517.888722773302
         Total DFT energy =    -1517.888742471286
         Total DFT energy =    -1517.888742053200
         Total DFT energy =    -1517.888742121304
         Total DFT energy =    -1517.888742380993
         Total DFT energy =    -1517.888722412784
         Total DFT energy =    -1517.888725945438
         Total DFT energy =    -1517.888738894366
         Total DFT energy =    -1517.888738774470
         Total DFT energy =    -1517.888741279115
         Total DFT energy =    -1517.888742048858
         Total DFT energy =    -1517.888743129439
         Total DFT energy =    -1517.888742993379
 Zero-Point correction to Energy  =    7.256 kcal/mol  (  0.011564 au)
 Thermal correction to Energy     =   10.467 kcal/mol  (  0.016681 au)
 Thermal correction to Enthalpy   =   11.059 kcal/mol  (  0.017624 au)
 Total Entropy                    =   73.724 cal/mol-K
   - Translational                =   40.614 cal/mol-K (mol. weight = 135.9050)
   - Rotational                   =   25.648 cal/mol-K (symmetry #  =        3)
   - Vibrational                  =    7.462 cal/mol-K
   - Translational                  =    2.979 cal/mol-K
   - Rotational                     =    2.979 cal/mol-K
   - Vibrational                    =   10.545 cal/mol-K
 P.Frequency       -0.00       -0.00       -0.00       -0.00       -0.00       -0.00
 P.Frequency      247.70      247.70      355.16      407.50      407.50      543.81
 P.Frequency      837.72      837.72     1193.52

 Normal Eigenvalue ||           Projected Infra Red Intensities
  Mode   [cm**-1]  || [atomic units] [(debye/angs)**2] [(KM/mol)] [arbitrary]
 ------ ---------- || -------------- ----------------- ---------- -----------
    1       -0.000 ||    0.000010           0.000         0.009       0.002
    2       -0.000 ||    0.000010           0.000         0.009       0.002
    3       -0.000 ||    0.000020           0.000         0.019       0.003
    4       -0.000 ||    0.000013           0.000         0.013       0.002
    5       -0.000 ||    0.000008           0.000         0.008       0.001
    6       -0.000 ||    0.000000           0.000         0.000       0.000
    7      247.702 ||    0.000002           0.000         0.002       0.000
    8      247.702 ||    0.000002           0.000         0.002       0.000
    9      355.161 ||    0.000000           0.000         0.000       0.000
   10      407.503 ||    0.000208           0.005         0.203       0.036
   11      407.503 ||    0.000208           0.005         0.203       0.036
   12      543.812 ||    0.004313           0.100         4.205       0.748
   13      837.721 ||    0.308099           7.108       300.350      53.462
   14      837.721 ||    0.308099           7.108       300.350      53.462
   15     1193.525 ||    0.243453           5.617       237.330      42.244
 ----------------------------------------------------------------------------

 Total times  cpu:      227.1s     wall:      190.9s
