============================== echo of input deck ==============================
ECHO

start molecule

#MEMORY
memory 3584 mb

#TITLE
title "CFCl4"

charge 0

#GEOMETRY
geometry units angstroms print xyz autosym
C          0.01249        0.78594        0.06926
Cl         1.79048        0.78594        0.06926
Cl        -0.58017        1.81550       -1.25361
F         -0.44802        1.27613        1.27601
Cl        -0.58017       -0.87448       -0.16093
end

BASIS "ao basis" SPHERICAL PRINT
#BASIS SET: (7s,4p,1d) -> [3s,2p,1d]
C    S
   1238.4016938              0.54568832082E-02
    186.29004992             0.40638409211E-01
     42.251176346            0.18025593888
     11.676557932            0.46315121755
      3.5930506482           0.44087173314
C    S
      0.40245147363          1.0000000
C    S
      0.13090182668          1.0000000
C    P
      9.4680970621           0.38387871728E-01
      2.0103545142           0.21117025112
      0.54771004707          0.51328172114
C    P
      0.15268613795          1.0000000
C    D
      0.8000000              1.0000000
#BASIS SET: (7s,4p,1d) -> [3s,2p,1d]
F    S
   2894.8325990             -0.53408255515E-02
    435.41939120            -0.39904258866E-01
     98.843328866           -0.17912768038
     27.485198001           -0.46758090825
      8.5405498171          -0.44653131020
F    S
      1.0654578038           1.0000000
F    S
      0.33247346748          1.0000000
F    P
     22.696633924           -0.45212874436E-01
      4.9872339257          -0.23754317067
      1.3491613954          -0.51287353587
F    P
      0.34829881977          1.0000000
F    D
      1.4000000              1.0000000
#BASIS SET: (10s,7p,1d) -> [4s,3p,1d]
Cl    S
  10449.8275660              0.19708362484E-02
   1571.7365221              0.14754727977E-01
    357.12065523             0.66679112875E-01
    100.25185935             0.17228924084
     30.812727554            0.15883786100
Cl    S
     51.923789434           -0.10009298909
      5.7045760975           0.60841752753
      2.3508376809           0.54352153355
Cl    S
      0.44605124672          1.0000000
Cl    S
      0.16848856190          1.0000000
Cl    P
    307.66790569            -0.87801484118E-02
     72.102015515           -0.63563355471E-01
     22.532680262           -0.24016428276
      7.8991765444          -0.47798866557
      2.8767268321          -0.38515850005
Cl    P
      0.77459363955          1.0000000
Cl    P
      0.21037699698          1.0000000
Cl    D
      0.6500000              1.0000000
END

#DFT
dft
  grid medium
  convergence energy 1e-07
  mult 1
  iterations 30
  xc becke88 perdew86
end

#OPT
driver
  default
  maxiter 100
end

set driver:linopt 0

#TASK
task dft optimize
task dft freq numerical

================================================================================

         Total DFT energy =    -1518.117351928747
@ Step       Energy      Delta E   Gmax     Grms     Xrms     Xmax   Walltime
@ ---- ---------------- -------- -------- -------- -------- -------- --------
@    0   -1518.11735193  0.0D+00  0.02377  0.00853  0.00000  0.00000      4.4
         Total DFT energy =    -1518.118762980454
@    1   -1518.11876298 -1.4D-03  0.00423  0.00136  0.02940  0.07203      8.1
         Total DFT energy =    -1518.118787584640
@    2   -1518.11878758 -2.5D-05  0.00030  0.00012  0.00268  0.00912     11.3
         Total DFT energy =    -1518.118787800984
@    3   -1518.11878780 -2.2D-07  0.00001  0.00001  0.00037  0.00078     14.3
@    3   -1518.11878780 -2.2D-07  0.00001  0.00001  0.00037  0.00078     14.3

 Output coordinates in angstroms (scale by  1.889725989 to convert to a.u.)

  No.       Tag          Charge          X              Y              Z
 ---- ---------------- ---------- -------------- -------------- --------------
    1 C                    6.0000     0.00000000    -0.00000000     0.26663779
    2 Cl                  17.0000    -0.11700344    -1.69468619    -0.30783973
    3 Cl                  17.0000     1.52614301     0.74601515    -0.30783973
    4 F                    9.0000    -0.00000000     0.00000000     1.60830109
    5 Cl                  17.0000    -1.40913958     0.94867104    -0.30783973

         Total DFT energy =    -1518.118787867318

                       DFT Final Molecular Orbital Analysis
                       ------------------------------------

 Vector    1  Occ=2.000000D+00  E=-1.007303D+02  Symmetry=e+

 Vector    3  Occ=2.000000D+00  E=-1.007302D+02  Symmetry=a

 Vector    4  Occ=2.000000D+00  E=-2.434927D+01  Symmetry=a

 Vector    5  Occ=2.000000D+00  E=-1.015888D+01  Symmetry=a

 Vector    6  Occ=2.000000D+00  E=-9.215958D+00  Symmetry=e+

 Vector    7  Occ=2.000000D+00  E=-9.215958D+00  Symmetry=e+

 Vector    8  Occ=2.000000D+00  E=-9.215910D+00  Symmetry=a

 Vector    9  Occ=2.000000D+00  E=-7.047758D+00  Symmetry=e+

 Vector   10  Occ=2.000000D+00  E=-7.047758D+00  Symmetry=e+

 Vector   11  Occ=2.000000D+00  E=-7.047735D+00  Symmetry=a

 Vector   12  Occ=2.000000D+00  E=-7.034780D+00  Symmetry=e+

 Vector   13  Occ=2.000000D+00  E=-7.034780D+00  Symmetry=e+

 Vector   14  Occ=2.000000D+00  E=-7.034775D+00  Symmetry=a

 Vector   15  Occ=2.000000D+00  E=-7.034680D+00  Symmetry=a

 Vector   16  Occ=2.000000D+00  E=-7.034659D+00  Symmetry=e+

 Vector   17  Occ=2.000000D+00  E=-7.034659D+00  Symmetry=e+

 Vector   18  Occ=2.000000D+00  E=-1.169105D+00  Symmetry=a

 Vector   19  Occ=2.000000D+00  E=-8.601157D-01  Symmetry=a

 Vector   20  Occ=2.000000D+00  E=-7.819307D-01  Symmetry=e+

 Vector   21  Occ=2.000000D+00  E=-7.819307D-01  Symmetry=e+

 Vector   22  Occ=2.000000D+00  E=-6.030314D-01  Symmetry=a

 Vector   23  Occ=2.000000D+00  E=-5.085153D-01  Symmetry=a

 Vector   24  Occ=2.000000D+00  E=-4.919978D-01  Symmetry=e+

 Vector   25  Occ=2.000000D+00  E=-4.919978D-01  Symmetry=e+

 Vector   26  Occ=2.000000D+00  E=-3.802353D-01  Symmetry=e+

 Vector   27  Occ=2.000000D+00  E=-3.802353D-01  Symmetry=e+

 Vector   28  Occ=2.000000D+00  E=-3.291754D-01  Symmetry=a

 Vector   29  Occ=2.000000D+00  E=-3.197440D-01  Symmetry=e+

 Vector   30  Occ=2.000000D+00  E=-3.197440D-01  Symmetry=e+

 Vector   31  Occ=2.000000D+00  E=-2.909569D-01  Symmetry=e+

 Vector   32  Occ=2.000000D+00  E=-2.909569D-01  Symmetry=e+

 Vector   33  Occ=2.000000D+00  E=-2.781551D-01  Symmetry=a

 Vector   34  Occ=0.000000D+00  E=-7.780691D-02  Symmetry=a

 Vector   35  Occ=0.000000D+00  E=-2.599497D-02  Symmetry=e+

 Vector   36  Occ=0.000000D+00  E=-2.599497D-02  Symmetry=e+

 Vector   37  Occ=0.000000D+00  E= 5.498450D-02  Symmetry=a

 Vector   38  Occ=0.000000D+00  E= 3.093443D-01  Symmetry=a

 Vector   39  Occ=0.000000D+00  E= 3.628472D-01  Symmetry=e+

 Vector   40  Occ=0.000000D+00  E= 3.628472D-01  Symmetry=e+

 Vector   41  Occ=0.000000D+00  E= 3.905120D-01  Symmetry=a

 Vector   42  Occ=0.000000D+00  E= 4.781356D-01  Symmetry=e+

 Vector   43  Occ=0.000000D+00  E= 4.781356D-01  Symmetry=e+

 Vector   44  Occ=0.000000D+00  E= 5.822956D-01  Symmetry=a

 Vector   45  Occ=0.000000D+00  E= 5.969946D-01  Symmetry=e+

 Vector   46  Occ=0.000000D+00  E= 5.969946D-01  Symmetry=e+

 Vector   47  Occ=0.000000D+00  E= 6.504662D-01  Symmetry=a

 Vector   48  Occ=0.000000D+00  E= 6.568950D-01  Symmetry=e+

 Vector   49  Occ=0.000000D+00  E= 6.568950D-01  Symmetry=e+

 Vector   50  Occ=0.000000D+00  E= 6.775030D-01  Symmetry=a

 Vector   51  Occ=0.000000D+00  E= 6.810510D-01  Symmetry=e+

 Vector   52  Occ=0.000000D+00  E= 6.810510D-01  Symmetry=e+

 Vector   53  Occ=0.000000D+00  E= 6.897191D-01  Symmetry=a

 Vector   54  Occ=0.000000D+00  E= 6.937890D-01  Symmetry=e+

 Vector   55  Occ=0.000000D+00  E= 6.937890D-01  Symmetry=e+

 Vector   56  Occ=0.000000D+00  E= 7.040145D-01  Symmetry=a

 Vector   57  Occ=0.000000D+00  E= 7.533669D-01  Symmetry=a

 Vector   58  Occ=0.000000D+00  E= 7.535870D-01  Symmetry=e+

 Vector   59  Occ=0.000000D+00  E= 7.535870D-01  Symmetry=e+

 Vector   60  Occ=0.000000D+00  E= 7.908090D-01  Symmetry=e+

 Vector   61  Occ=0.000000D+00  E= 7.908090D-01  Symmetry=e+

 Vector   62  Occ=0.000000D+00  E= 9.503429D-01  Symmetry=a

 Vector   63  Occ=0.000000D+00  E= 9.600698D-01  Symmetry=a

 Vector   64  Occ=0.000000D+00  E= 1.003359D+00  Symmetry=e+

 Vector   65  Occ=0.000000D+00  E= 1.003359D+00  Symmetry=e+

 Vector   66  Occ=0.000000D+00  E= 1.162517D+00  Symmetry=e+

 Vector   67  Occ=0.000000D+00  E= 1.162517D+00  Symmetry=e+

 Vector   68  Occ=0.000000D+00  E= 1.162530D+00  Symmetry=a

 Vector   69  Occ=0.000000D+00  E= 1.267714D+00  Symmetry=a

 Vector   70  Occ=0.000000D+00  E= 1.310217D+00  Symmetry=e+

 Vector   71  Occ=0.000000D+00  E= 1.310217D+00  Symmetry=e+

 Vector   72  Occ=0.000000D+00  E= 1.605258D+00  Symmetry=e+

 Vector   73  Occ=0.000000D+00  E= 1.605258D+00  Symmetry=e+

 Vector   74  Occ=0.000000D+00  E= 1.803520D+00  Symmetry=a

 Vector   75  Occ=0.000000D+00  E= 1.967297D+00  Symmetry=a

 Vector   76  Occ=0.000000D+00  E= 1.982480D+00  Symmetry=e+

 Vector   77  Occ=0.000000D+00  E= 1.982480D+00  Symmetry=e+

 Vector   78  Occ=0.000000D+00  E= 2.926691D+00  Symmetry=e+

 Vector   79  Occ=0.000000D+00  E= 2.926691D+00  Symmetry=e+

 Vector   80  Occ=0.000000D+00  E= 3.163140D+00  Symmetry=e+

 Vector   81  Occ=0.000000D+00  E= 3.163140D+00  Symmetry=e+

 Vector   82  Occ=0.000000D+00  E= 3.621530D+00  Symmetry=a

     Multipole analysis of the density
     ---------------------------------

     L   x y z        total         alpha         beta         nuclear
     -   - - -        -----         -----         ----         -------
     0   0 0 0     -0.000000    -33.000000    -33.000000     66.000000

     1   1 0 0      0.000000      0.000000      0.000000      0.000000
     1   0 1 0      0.000000      0.000000      0.000000      0.000000
     1   0 0 1     -0.083475     -0.395787     -0.395787      0.708100

     2   2 0 0    -34.439342   -148.606453   -148.606453    262.773564
     2   1 1 0      0.000000      0.000000      0.000000      0.000000
     2   1 0 1     -0.000000     -0.000000     -0.000000     -0.000000
     2   0 2 0    -34.439342   -148.606453   -148.606453    262.773564
     2   0 1 1     -0.000000     -0.000000     -0.000000      0.000000

         Total DFT energy =    -1518.118774242760
         Total DFT energy =    -1518.118774245914
         Total DFT energy =    -1518.118774302437
         Total DFT energy =    -1518.118774290415
         Total DFT energy =    -1518.118767238910
         Total DFT energy =    -1518.118767216729
         Total DFT energy =    -1518.118783339787
         Total DFT energy =    -1518.118783391174
         Total DFT energy =    -1518.118783378375
         Total DFT energy =    -1518.118783411124
         Total DFT energy =    -1518.118768408830
         Total DFT energy =    -1518.118767988392
         Total DFT energy =    -1518.118780481654
         Total DFT energy =    -1518.118780421939
         Total DFT energy =    -1518.118782834461
         Total DFT energy =    -1518.118782923806
         Total DFT energy =    -1518.118784038787
         Total DFT energy =    -1518.118784054958
 Zero-Point correction to Energy  =    6.789 kcal/mol  (  0.010818 au)
 Thermal correction to Energy     =   10.106 kcal/mol  (  0.016105 au)
 Thermal correction to Enthalpy   =   10.699 kcal/mol  (  0.017049 au)
 Total Entropy                    =   74.457 cal/mol-K
   - Translational                =   40.614 cal/mol-K (mol. weight = 135.9050)
   - Rotational                   =   25.717 cal/mol-K (symmetry #  =        3)
   - Vibrational                  =    8.126 cal/mol-K
   - Translational                  =    2.979 cal/mol-K
   - Rotational                     =    2.979 cal/mol-K
   - Vibrational                    =   11.045 cal/mol-K
 P.Frequency       -0.00       -0.00       -0.00       -0.00       -0.00        0.00
 P.Frequency      232.16      232.16      338.02      382.99      382.99      513.37
 P.Frequency      784.03      784.03     1101.24

 Normal Eigenvalue ||           Projected Infra Red Intensities
  Mode   [cm**-1]  || [atomic units] [(debye/angs)**2] [(KM/mol)] [arbitrary]
 ------ ---------- || -------------- ----------------- ---------- -----------
    1       -0.000 ||    0.000002           0.000         0.001       0.000
    2       -0.000 ||    0.000001           0.000         0.001       0.000
    3       -0.000 ||    0.000003           0.000         0.003       0.000
    4       -0.000 ||    0.000001           0.000         0.001       0.000
    5       -0.000 ||    0.000004           0.000         0.004       0.001
    6        0.000 ||    0.000004           0.000         0.004       0.001
    7      232.164 ||    0.000007           0.000         0.007       0.001
    8      232.164 ||    0.000007           0.000         0.007       0.001
    9      338.024 ||    0.000015           0.000         0.015       0.003
   10      382.994 ||    0.001278           0.029         1.246       0.234
   11      382.994 ||    0.001278           0.029         1.246       0.234
   12      513.374 ||    0.004618           0.107         4.502       0.844
   13      784.033 ||    0.295190           6.810       287.765      53.949
   14      784.033 ||    0.295190           6.810       287.765      53.949
   15     1101.236 ||    0.223152           5.148       217.539      40.783
 ----------------------------------------------------------------------------

 Total times  cpu:      152.4s     wall:      133.1s
