============================== echo of input deck ==============================
ECHO

start molecule

#MEMORY
memory 3584 mb

#TITLE
title "CFCl4"

charge 0

#GEOMETRY
geometry units angstroms print xyz autosym
C          0.01249        0.78594        0.06926
Cl         1.79048        0.78594        0.06926
Cl        -0.58017        1.81550       -1.25361
F         -0.44802        1.27613        1.27601
Cl        -0.58017       -0.87448       -0.16093
end

BASIS "ao basis" SPHERICAL PRINT
#BASIS SET: (7s,4p,1d) -> [3s,2p,1d]
C    S
   1238.4016938              0.54568832082E-02
    186.29004992             0.40638409211E-01
     42.251176346            0.18025593888
     11.676557932            0.46315121755
      3.5930506482           0.44087173314
C    S
      0.40245147363          1.0000000
C    S
      0.13090182668          1.0000000
C    P
      9.4680970621           0.38387871728E-01
      2.0103545142           0.21117025112
      0.54771004707          0.51328172114
C    P
      0.15268613795          1.0000000
C    D
      0.8000000              1.0000000
#BASIS SET: (7s,4p,1d) -> [3s,2p,1d]
F    S
   2894.8325990             -0.53408255515E-02
    435.41939120            -0.39904258866E-01
     98.843328866           -0.17912768038
     27.485198001           -0.46758090825
      8.5405498171          -0.44653131020
F    S
      1.0654578038           1.0000000
F    S
      0.33247346748          1.0000000
F    P
     22.696633924           -0.45212874436E-01
      4.9872339257          -0.23754317067
      1.3491613954          -0.51287353587
F    P
      0.34829881977          1.0000000
F    D
      1.4000000              1.0000000
#BASIS SET: (10s,7p,1d) -> [4s,3p,1d]
Cl    S
  10449.8275660              0.19708362484E-02
   1571.7365221              0.14754727977E-01
    357.12065523             0.66679112875E-01
    100.25185935             0.17228924084
     30.812727554            0.15883786100
Cl    S
     51.923789434           -0.10009298909
      5.7045760975           0.60841752753
      2.3508376809           0.54352153355
Cl    S
      0.44605124672          1.0000000
Cl    S
      0.16848856190          1.0000000
Cl    P
    307.66790569            -0.87801484118E-02
     72.102015515           -0.63563355471E-01
     22.532680262           -0.24016428276
      7.8991765444          -0.47798866557
      2.8767268321          -0.38515850005
Cl    P
      0.77459363955          1.0000000
Cl    P
      0.21037699698          1.0000000
Cl    D
      0.6500000              1.0000000
END

#DFT
dft
  grid medium
  convergence energy 1e-07
  mult 1
  iterations 30
  xc xpbe96 cpbe96
end

#OPT
driver
  default
  maxiter 100
end

set driver:linopt 0

#TASK
task dft optimize
task dft freq numerical

================================================================================

         Total DFT energy =    -1517.287080738602
@ Step       Energy      Delta E   Gmax     Grms     Xrms     Xmax   Walltime
@ ---- ---------------- -------- -------- -------- -------- -------- --------
@    0   -1517.28708074  0.0D+00  0.02592  0.00877  0.00000  0.00000      4.4
         Total DFT energy =    -1517.288447644124
@    1   -1517.28844764 -1.4D-03  0.00436  0.00139  0.02783  0.07645      8.0
         Total DFT energy =    -1517.288474735947
@    2   -1517.28847474 -2.7D-05  0.00045  0.00015  0.00277  0.00925     11.5
         Total DFT energy =    -1517.288475100624
@    3   -1517.28847510 -3.6D-07  0.00001  0.00000  0.00049  0.00139     14.3
@    3   -1517.28847510 -3.6D-07  0.00001  0.00000  0.00049  0.00139     14.3

 Output coordinates in angstroms (scale by  1.889725989 to convert to a.u.)

  No.       Tag          Charge          X              Y              Z
 ---- ---------------- ---------- -------------- -------------- --------------
    1 C                    6.0000     0.00000000     0.00000000     0.26596295
    2 Cl                  17.0000    -0.11661656    -1.68908266    -0.30693370
    3 Cl                  17.0000     1.52109677     0.74354843    -0.30693370
    4 F                    9.0000     0.00000000     0.00000000     1.60625784
    5 Cl                  17.0000    -1.40448021     0.94553423    -0.30693370

         Total DFT energy =    -1517.288475098692

                       DFT Final Molecular Orbital Analysis
                       ------------------------------------

 Vector    1  Occ=2.000000D+00  E=-1.006672D+02  Symmetry=e+

 Vector    3  Occ=2.000000D+00  E=-1.006672D+02  Symmetry=a

 Vector    4  Occ=2.000000D+00  E=-2.432118D+01  Symmetry=a

 Vector    5  Occ=2.000000D+00  E=-1.014003D+01  Symmetry=a

 Vector    6  Occ=2.000000D+00  E=-9.204319D+00  Symmetry=e+

 Vector    7  Occ=2.000000D+00  E=-9.204319D+00  Symmetry=e+

 Vector    8  Occ=2.000000D+00  E=-9.204271D+00  Symmetry=a

 Vector    9  Occ=2.000000D+00  E=-7.036512D+00  Symmetry=e+

 Vector   10  Occ=2.000000D+00  E=-7.036512D+00  Symmetry=e+

 Vector   11  Occ=2.000000D+00  E=-7.036488D+00  Symmetry=a

 Vector   12  Occ=2.000000D+00  E=-7.023388D+00  Symmetry=e+

 Vector   13  Occ=2.000000D+00  E=-7.023388D+00  Symmetry=e+

 Vector   14  Occ=2.000000D+00  E=-7.023384D+00  Symmetry=a

 Vector   15  Occ=2.000000D+00  E=-7.023280D+00  Symmetry=a

 Vector   16  Occ=2.000000D+00  E=-7.023259D+00  Symmetry=e+

 Vector   17  Occ=2.000000D+00  E=-7.023259D+00  Symmetry=e+

 Vector   18  Occ=2.000000D+00  E=-1.164740D+00  Symmetry=a

 Vector   19  Occ=2.000000D+00  E=-8.581589D-01  Symmetry=a

 Vector   20  Occ=2.000000D+00  E=-7.786005D-01  Symmetry=e+

 Vector   21  Occ=2.000000D+00  E=-7.786005D-01  Symmetry=e+

 Vector   22  Occ=2.000000D+00  E=-5.983337D-01  Symmetry=a

 Vector   23  Occ=2.000000D+00  E=-5.049612D-01  Symmetry=a

 Vector   24  Occ=2.000000D+00  E=-4.883379D-01  Symmetry=e+

 Vector   25  Occ=2.000000D+00  E=-4.883379D-01  Symmetry=e+

 Vector   26  Occ=2.000000D+00  E=-3.757620D-01  Symmetry=e+

 Vector   27  Occ=2.000000D+00  E=-3.757620D-01  Symmetry=e+

 Vector   28  Occ=2.000000D+00  E=-3.252998D-01  Symmetry=a

 Vector   29  Occ=2.000000D+00  E=-3.156907D-01  Symmetry=e+

 Vector   30  Occ=2.000000D+00  E=-3.156907D-01  Symmetry=e+

 Vector   31  Occ=2.000000D+00  E=-2.864612D-01  Symmetry=e+

 Vector   32  Occ=2.000000D+00  E=-2.864612D-01  Symmetry=e+

 Vector   33  Occ=2.000000D+00  E=-2.735183D-01  Symmetry=a

 Vector   34  Occ=0.000000D+00  E=-7.000846D-02  Symmetry=a

 Vector   35  Occ=0.000000D+00  E=-1.943866D-02  Symmetry=e+

 Vector   36  Occ=0.000000D+00  E=-1.943866D-02  Symmetry=e+

 Vector   37  Occ=0.000000D+00  E= 5.982369D-02  Symmetry=a

 Vector   38  Occ=0.000000D+00  E= 3.157724D-01  Symmetry=a

 Vector   39  Occ=0.000000D+00  E= 3.664479D-01  Symmetry=e+

 Vector   40  Occ=0.000000D+00  E= 3.664479D-01  Symmetry=e+

 Vector   41  Occ=0.000000D+00  E= 3.960739D-01  Symmetry=a

 Vector   42  Occ=0.000000D+00  E= 4.855774D-01  Symmetry=e+

 Vector   43  Occ=0.000000D+00  E= 4.855774D-01  Symmetry=e+

 Vector   44  Occ=0.000000D+00  E= 5.862771D-01  Symmetry=a

 Vector   45  Occ=0.000000D+00  E= 5.976450D-01  Symmetry=e+

 Vector   46  Occ=0.000000D+00  E= 5.976450D-01  Symmetry=e+

 Vector   47  Occ=0.000000D+00  E= 6.528523D-01  Symmetry=a

 Vector   48  Occ=0.000000D+00  E= 6.612626D-01  Symmetry=e+

 Vector   49  Occ=0.000000D+00  E= 6.612626D-01  Symmetry=e+

 Vector   50  Occ=0.000000D+00  E= 6.815205D-01  Symmetry=a

 Vector   51  Occ=0.000000D+00  E= 6.835317D-01  Symmetry=e+

 Vector   52  Occ=0.000000D+00  E= 6.835317D-01  Symmetry=e+

 Vector   53  Occ=0.000000D+00  E= 6.917828D-01  Symmetry=a

 Vector   54  Occ=0.000000D+00  E= 6.981342D-01  Symmetry=e+

 Vector   55  Occ=0.000000D+00  E= 6.981342D-01  Symmetry=e+

 Vector   56  Occ=0.000000D+00  E= 7.111317D-01  Symmetry=a

 Vector   57  Occ=0.000000D+00  E= 7.606042D-01  Symmetry=e+

 Vector   58  Occ=0.000000D+00  E= 7.606042D-01  Symmetry=e+

 Vector   59  Occ=0.000000D+00  E= 7.611117D-01  Symmetry=a

 Vector   60  Occ=0.000000D+00  E= 7.991009D-01  Symmetry=e+

 Vector   61  Occ=0.000000D+00  E= 7.991009D-01  Symmetry=e+

 Vector   62  Occ=0.000000D+00  E= 9.606409D-01  Symmetry=a

 Vector   63  Occ=0.000000D+00  E= 9.672821D-01  Symmetry=a

 Vector   64  Occ=0.000000D+00  E= 1.011300D+00  Symmetry=e+

 Vector   65  Occ=0.000000D+00  E= 1.011300D+00  Symmetry=e+

 Vector   66  Occ=0.000000D+00  E= 1.169834D+00  Symmetry=a

 Vector   67  Occ=0.000000D+00  E= 1.172203D+00  Symmetry=e+

 Vector   68  Occ=0.000000D+00  E= 1.172203D+00  Symmetry=e+

 Vector   69  Occ=0.000000D+00  E= 1.275149D+00  Symmetry=a

 Vector   70  Occ=0.000000D+00  E= 1.319923D+00  Symmetry=e+

 Vector   71  Occ=0.000000D+00  E= 1.319923D+00  Symmetry=e+

 Vector   72  Occ=0.000000D+00  E= 1.609287D+00  Symmetry=e+

 Vector   73  Occ=0.000000D+00  E= 1.609287D+00  Symmetry=e+

 Vector   74  Occ=0.000000D+00  E= 1.808539D+00  Symmetry=a

 Vector   75  Occ=0.000000D+00  E= 1.973414D+00  Symmetry=a

 Vector   76  Occ=0.000000D+00  E= 1.988292D+00  Symmetry=e+

 Vector   77  Occ=0.000000D+00  E= 1.988292D+00  Symmetry=e+

 Vector   78  Occ=0.000000D+00  E= 2.929264D+00  Symmetry=e+

 Vector   79  Occ=0.000000D+00  E= 2.929264D+00  Symmetry=e+

 Vector   80  Occ=0.000000D+00  E= 3.166923D+00  Symmetry=e+

 Vector   81  Occ=0.000000D+00  E= 3.166923D+00  Symmetry=e+

 Vector   82  Occ=0.000000D+00  E= 3.626109D+00  Symmetry=a

     Multipole analysis of the density
     ---------------------------------

     L   x y z        total         alpha         beta         nuclear
     -   - - -        -----         -----         ----         -------
     0   0 0 0     -0.000000    -33.000000    -33.000000     66.000000

     1   1 0 0      0.000000      0.000000      0.000000      0.000000
     1   0 1 0     -0.000000     -0.000000     -0.000000     -0.000000
     1   0 0 1     -0.083758     -0.418388     -0.418388      0.753017

     2   2 0 0    -34.408019   -147.723358   -147.723358    261.038698
     2   1 1 0     -0.000000     -0.000000     -0.000000      0.000000
     2   1 0 1     -0.000000     -0.000000     -0.000000     -0.000000
     2   0 2 0    -34.408019   -147.723358   -147.723358    261.038698
     2   0 1 1      0.000000      0.000000      0.000000      0.000000

         Total DFT energy =    -1517.288462450871
         Total DFT energy =    -1517.288462552655
         Total DFT energy =    -1517.288462519564
         Total DFT energy =    -1517.288462481021
         Total DFT energy =    -1517.288455484208
         Total DFT energy =    -1517.288455465880
         Total DFT energy =    -1517.288471811318
         Total DFT energy =    -1517.288471837805
         Total DFT energy =    -1517.288471819516
         Total DFT energy =    -1517.288471815283
         Total DFT energy =    -1517.288456571490
         Total DFT energy =    -1517.288456293808
         Total DFT energy =    -1517.288468863509
         Total DFT energy =    -1517.288468762411
         Total DFT energy =    -1517.288471284143
         Total DFT energy =    -1517.288471373423
         Total DFT energy =    -1517.288472492520
         Total DFT energy =    -1517.288472589338
 Zero-Point correction to Energy  =    6.849 kcal/mol  (  0.010914 au)
 Thermal correction to Energy     =   10.150 kcal/mol  (  0.016175 au)
 Thermal correction to Enthalpy   =   10.742 kcal/mol  (  0.017119 au)
 Total Entropy                    =   74.338 cal/mol-K
   - Translational                =   40.614 cal/mol-K (mol. weight = 135.9050)
   - Rotational                   =   25.699 cal/mol-K (symmetry #  =        3)
   - Vibrational                  =    8.025 cal/mol-K
   - Translational                  =    2.979 cal/mol-K
   - Rotational                     =    2.979 cal/mol-K
   - Vibrational                    =   10.972 cal/mol-K
 P.Frequency       -0.00       -0.00       -0.00        0.00        0.00        0.00
 P.Frequency      234.02      234.02      341.11      386.60      386.60      519.84
 P.Frequency      791.99      791.99     1106.83

 Normal Eigenvalue ||           Projected Infra Red Intensities
  Mode   [cm**-1]  || [atomic units] [(debye/angs)**2] [(KM/mol)] [arbitrary]
 ------ ---------- || -------------- ----------------- ---------- -----------
    1       -0.000 ||    0.000004           0.000         0.004       0.001
    2       -0.000 ||    0.000001           0.000         0.001       0.000
    3       -0.000 ||    0.000001           0.000         0.001       0.000
    4        0.000 ||    0.000004           0.000         0.004       0.001
    5        0.000 ||    0.000002           0.000         0.002       0.000
    6        0.000 ||    0.000003           0.000         0.003       0.000
    7      234.024 ||    0.000010           0.000         0.010       0.002
    8      234.024 ||    0.000010           0.000         0.010       0.002
    9      341.109 ||    0.000007           0.000         0.007       0.001
   10      386.603 ||    0.001050           0.024         1.023       0.192
   11      386.603 ||    0.001050           0.024         1.023       0.192
   12      519.840 ||    0.004574           0.106         4.459       0.837
   13      791.990 ||    0.295349           6.814       287.921      54.021
   14      791.990 ||    0.295349           6.814       287.921      54.021
   15     1106.831 ||    0.222683           5.137       217.082      40.730
 ----------------------------------------------------------------------------

 Total times  cpu:      152.7s     wall:      131.3s
