============================== echo of input deck ==============================
ECHO

start molecule

#MEMORY
memory 3584 mb

#TITLE
title "CFCl4"

charge 0

#GEOMETRY
geometry units angstroms print xyz autosym
C          0.01249        0.78594        0.06926
Cl         1.79048        0.78594        0.06926
Cl        -0.58017        1.81550       -1.25361
F         -0.44802        1.27613        1.27601
Cl        -0.58017       -0.87448       -0.16093
end

BASIS "ao basis" SPHERICAL PRINT
#BASIS SET: (7s,4p,1d) -> [3s,2p,1d]
C    S
   1238.4016938              0.54568832082E-02
    186.29004992             0.40638409211E-01
     42.251176346            0.18025593888
     11.676557932            0.46315121755
      3.5930506482           0.44087173314
C    S
      0.40245147363          1.0000000
C    S
      0.13090182668          1.0000000
C    P
      9.4680970621           0.38387871728E-01
      2.0103545142           0.21117025112
      0.54771004707          0.51328172114
C    P
      0.15268613795          1.0000000
C    D
      0.8000000              1.0000000
#BASIS SET: (7s,4p,1d) -> [3s,2p,1d]
F    S
   2894.8325990             -0.53408255515E-02
    435.41939120            -0.39904258866E-01
     98.843328866           -0.17912768038
     27.485198001           -0.46758090825
      8.5405498171          -0.44653131020
F    S
      1.0654578038           1.0000000
F    S
      0.33247346748          1.0000000
F    P
     22.696633924           -0.45212874436E-01
      4.9872339257          -0.23754317067
      1.3491613954          -0.51287353587
F    P
      0.34829881977          1.0000000
F    D
      1.4000000              1.0000000
#BASIS SET: (10s,7p,1d) -> [4s,3p,1d]
Cl    S
  10449.8275660              0.19708362484E-02
   1571.7365221              0.14754727977E-01
    357.12065523             0.66679112875E-01
    100.25185935             0.17228924084
     30.812727554            0.15883786100
Cl    S
     51.923789434           -0.10009298909
      5.7045760975           0.60841752753
      2.3508376809           0.54352153355
Cl    S
      0.44605124672          1.0000000
Cl    S
      0.16848856190          1.0000000
Cl    P
    307.66790569            -0.87801484118E-02
     72.102015515           -0.63563355471E-01
     22.532680262           -0.24016428276
      7.8991765444          -0.47798866557
      2.8767268321          -0.38515850005
Cl    P
      0.77459363955          1.0000000
Cl    P
      0.21037699698          1.0000000
Cl    D
      0.6500000              1.0000000
END

#DFT
dft
  grid medium
  convergence energy 1e-07
  mult 1
  iterations 30
  xc m06-l
end

#OPT
driver
  default
  maxiter 100
end

set driver:linopt 0

#TASK
task dft optimize
task dft freq numerical

================================================================================

         Total DFT energy =    -1517.972738760522
@ Step       Energy      Delta E   Gmax     Grms     Xrms     Xmax   Walltime
@ ---- ---------------- -------- -------- -------- -------- -------- --------
@    0   -1517.97273876  0.0D+00  0.03837  0.01279  0.00000  0.00000      5.5
         Total DFT energy =    -1517.975278493317
@    1   -1517.97527849 -2.5D-03  0.00354  0.00123  0.03578  0.11125     10.4
         Total DFT energy =    -1517.975299752954
@    2   -1517.97529975 -2.1D-05  0.00068  0.00022  0.00268  0.00606     15.0
         Total DFT energy =    -1517.975300278147
@    3   -1517.97530028 -5.3D-07  0.00002  0.00001  0.00043  0.00146     18.6
@    3   -1517.97530028 -5.3D-07  0.00002  0.00001  0.00043  0.00146     18.6

 Output coordinates in angstroms (scale by  1.889725989 to convert to a.u.)

  No.       Tag          Charge          X              Y              Z
 ---- ---------------- ---------- -------------- -------------- --------------
    1 C                    6.0000    -0.00000000     0.00000000     0.26386551
    2 Cl                  17.0000    -0.11602134    -1.68046149    -0.30082650
    3 Cl                  17.0000     1.51333302     0.73975332    -0.30082650
    4 F                    9.0000    -0.00000000     0.00000000     1.59003369
    5 Cl                  17.0000    -1.39731167     0.94070818    -0.30082650

         Total DFT energy =    -1517.975300326166

                       DFT Final Molecular Orbital Analysis
                       ------------------------------------

 Vector    1  Occ=2.000000D+00  E=-1.011750D+02  Symmetry=e+

 Vector    3  Occ=2.000000D+00  E=-1.011749D+02  Symmetry=a

 Vector    4  Occ=2.000000D+00  E=-2.457281D+01  Symmetry=a

 Vector    5  Occ=2.000000D+00  E=-1.032100D+01  Symmetry=a

 Vector    6  Occ=2.000000D+00  E=-9.445587D+00  Symmetry=e+

 Vector    7  Occ=2.000000D+00  E=-9.445587D+00  Symmetry=e+

 Vector    8  Occ=2.000000D+00  E=-9.445575D+00  Symmetry=a

 Vector    9  Occ=2.000000D+00  E=-7.159684D+00  Symmetry=e+

 Vector   10  Occ=2.000000D+00  E=-7.159684D+00  Symmetry=e+

 Vector   11  Occ=2.000000D+00  E=-7.159670D+00  Symmetry=a

 Vector   12  Occ=2.000000D+00  E=-7.147104D+00  Symmetry=e+

 Vector   13  Occ=2.000000D+00  E=-7.147104D+00  Symmetry=e+

 Vector   14  Occ=2.000000D+00  E=-7.147101D+00  Symmetry=a

 Vector   15  Occ=2.000000D+00  E=-7.147045D+00  Symmetry=a

 Vector   16  Occ=2.000000D+00  E=-7.147034D+00  Symmetry=e+

 Vector   17  Occ=2.000000D+00  E=-7.147034D+00  Symmetry=e+

 Vector   18  Occ=2.000000D+00  E=-1.260699D+00  Symmetry=a

 Vector   19  Occ=2.000000D+00  E=-9.083289D-01  Symmetry=a

 Vector   20  Occ=2.000000D+00  E=-8.235122D-01  Symmetry=e+

 Vector   21  Occ=2.000000D+00  E=-8.235122D-01  Symmetry=e+

 Vector   22  Occ=2.000000D+00  E=-6.353234D-01  Symmetry=a

 Vector   23  Occ=2.000000D+00  E=-5.334558D-01  Symmetry=a

 Vector   24  Occ=2.000000D+00  E=-5.170510D-01  Symmetry=e+

 Vector   25  Occ=2.000000D+00  E=-5.170510D-01  Symmetry=e+

 Vector   26  Occ=2.000000D+00  E=-4.026055D-01  Symmetry=e+

 Vector   27  Occ=2.000000D+00  E=-4.026055D-01  Symmetry=e+

 Vector   28  Occ=2.000000D+00  E=-3.443977D-01  Symmetry=a

 Vector   29  Occ=2.000000D+00  E=-3.353744D-01  Symmetry=e+

 Vector   30  Occ=2.000000D+00  E=-3.353744D-01  Symmetry=e+

 Vector   31  Occ=2.000000D+00  E=-3.064854D-01  Symmetry=e+

 Vector   32  Occ=2.000000D+00  E=-3.064854D-01  Symmetry=e+

 Vector   33  Occ=2.000000D+00  E=-2.931486D-01  Symmetry=a

 Vector   34  Occ=0.000000D+00  E=-7.016744D-02  Symmetry=a

 Vector   35  Occ=0.000000D+00  E=-1.269206D-02  Symmetry=e+

 Vector   36  Occ=0.000000D+00  E=-1.269206D-02  Symmetry=e+

 Vector   37  Occ=0.000000D+00  E= 8.163288D-02  Symmetry=a

 Vector   38  Occ=0.000000D+00  E= 3.534640D-01  Symmetry=a

 Vector   39  Occ=0.000000D+00  E= 3.936145D-01  Symmetry=e+

 Vector   40  Occ=0.000000D+00  E= 3.936145D-01  Symmetry=e+

 Vector   41  Occ=0.000000D+00  E= 4.374788D-01  Symmetry=a

 Vector   42  Occ=0.000000D+00  E= 5.182987D-01  Symmetry=e+

 Vector   43  Occ=0.000000D+00  E= 5.182987D-01  Symmetry=e+

 Vector   44  Occ=0.000000D+00  E= 6.139941D-01  Symmetry=e+

 Vector   45  Occ=0.000000D+00  E= 6.139941D-01  Symmetry=e+

 Vector   46  Occ=0.000000D+00  E= 6.170653D-01  Symmetry=a

 Vector   47  Occ=0.000000D+00  E= 6.741302D-01  Symmetry=a

 Vector   48  Occ=0.000000D+00  E= 6.961552D-01  Symmetry=e+

 Vector   49  Occ=0.000000D+00  E= 6.961552D-01  Symmetry=e+

 Vector   50  Occ=0.000000D+00  E= 7.128119D-01  Symmetry=e+

 Vector   51  Occ=0.000000D+00  E= 7.128119D-01  Symmetry=e+

 Vector   52  Occ=0.000000D+00  E= 7.149026D-01  Symmetry=a

 Vector   53  Occ=0.000000D+00  E= 7.197710D-01  Symmetry=a

 Vector   54  Occ=0.000000D+00  E= 7.374717D-01  Symmetry=e+

 Vector   55  Occ=0.000000D+00  E= 7.374717D-01  Symmetry=e+

 Vector   56  Occ=0.000000D+00  E= 7.628967D-01  Symmetry=a

 Vector   57  Occ=0.000000D+00  E= 8.120981D-01  Symmetry=e+

 Vector   58  Occ=0.000000D+00  E= 8.120981D-01  Symmetry=e+

 Vector   59  Occ=0.000000D+00  E= 8.145733D-01  Symmetry=a

 Vector   60  Occ=0.000000D+00  E= 8.593680D-01  Symmetry=e+

 Vector   61  Occ=0.000000D+00  E= 8.593680D-01  Symmetry=e+

 Vector   62  Occ=0.000000D+00  E= 1.014965D+00  Symmetry=a

 Vector   63  Occ=0.000000D+00  E= 1.027250D+00  Symmetry=a

 Vector   64  Occ=0.000000D+00  E= 1.071633D+00  Symmetry=e+

 Vector   65  Occ=0.000000D+00  E= 1.071633D+00  Symmetry=e+

 Vector   66  Occ=0.000000D+00  E= 1.226717D+00  Symmetry=a

 Vector   67  Occ=0.000000D+00  E= 1.250171D+00  Symmetry=e+

 Vector   68  Occ=0.000000D+00  E= 1.250171D+00  Symmetry=e+

 Vector   69  Occ=0.000000D+00  E= 1.347827D+00  Symmetry=a

 Vector   70  Occ=0.000000D+00  E= 1.383869D+00  Symmetry=e+

 Vector   71  Occ=0.000000D+00  E= 1.383869D+00  Symmetry=e+

 Vector   72  Occ=0.000000D+00  E= 1.648162D+00  Symmetry=e+

 Vector   73  Occ=0.000000D+00  E= 1.648162D+00  Symmetry=e+

 Vector   74  Occ=0.000000D+00  E= 1.876066D+00  Symmetry=a

 Vector   75  Occ=0.000000D+00  E= 2.050568D+00  Symmetry=e+

 Vector   76  Occ=0.000000D+00  E= 2.050568D+00  Symmetry=e+

 Vector   77  Occ=0.000000D+00  E= 2.066540D+00  Symmetry=a

 Vector   78  Occ=0.000000D+00  E= 3.023721D+00  Symmetry=e+

 Vector   79  Occ=0.000000D+00  E= 3.023721D+00  Symmetry=e+

 Vector   80  Occ=0.000000D+00  E= 3.282284D+00  Symmetry=e+

 Vector   81  Occ=0.000000D+00  E= 3.282284D+00  Symmetry=e+

 Vector   82  Occ=0.000000D+00  E= 3.768553D+00  Symmetry=a

     Multipole analysis of the density
     ---------------------------------

     L   x y z        total         alpha         beta         nuclear
     -   - - -        -----         -----         ----         -------
     0   0 0 0     -0.000000    -33.000000    -33.000000     66.000000

     1   1 0 0     -0.000000     -0.000000     -0.000000      0.000000
     1   0 1 0      0.000000      0.000000      0.000000      0.000000
     1   0 0 1     -0.070123     -0.556007     -0.556007      1.041890

     2   2 0 0    -34.698486   -146.539638   -146.539638    258.380789
     2   1 1 0      0.000000      0.000000      0.000000      0.000000
     2   1 0 1     -0.000000     -0.000000     -0.000000      0.000000
     2   0 2 0    -34.698486   -146.539638   -146.539638    258.380789
     2   0 1 1     -0.000000     -0.000000     -0.000000      0.000000

         Total DFT energy =    -1517.975361247871
         Total DFT energy =    -1517.975362374223
         Total DFT energy =    -1517.975361923870
         Total DFT energy =    -1517.975361528785
         Total DFT energy =    -1517.975354500218
         Total DFT energy =    -1517.975353855224
         Total DFT energy =    -1517.975371862158
         Total DFT energy =    -1517.975371294037
         Total DFT energy =    -1517.975371399617
         Total DFT energy =    -1517.975371701305
         Total DFT energy =    -1517.975352209300
         Total DFT energy =    -1517.975357727816
         Total DFT energy =    -1517.975368588537
         Total DFT energy =    -1517.975368247644
         Total DFT energy =    -1517.975370244408
         Total DFT energy =    -1517.975371834419
         Total DFT energy =    -1517.975373048379
         Total DFT energy =    -1517.975371732309
 Zero-Point correction to Energy  =    7.091 kcal/mol  (  0.011300 au)
 Thermal correction to Energy     =   10.323 kcal/mol  (  0.016451 au)
 Thermal correction to Enthalpy   =   10.915 kcal/mol  (  0.017395 au)
 Total Entropy                    =   73.854 cal/mol-K
   - Translational                =   40.614 cal/mol-K (mol. weight = 135.9050)
   - Rotational                   =   25.661 cal/mol-K (symmetry #  =        3)
   - Vibrational                  =    7.579 cal/mol-K
   - Translational                  =    2.979 cal/mol-K
   - Rotational                     =    2.979 cal/mol-K
   - Vibrational                    =   10.696 cal/mol-K
 P.Frequency       -0.00       -0.00        0.00        0.00        0.00        0.00
 P.Frequency      246.61      246.61      353.97      402.12      402.12      537.89
 P.Frequency      813.99      813.99     1144.99

 Normal Eigenvalue ||           Projected Infra Red Intensities
  Mode   [cm**-1]  || [atomic units] [(debye/angs)**2] [(KM/mol)] [arbitrary]
 ------ ---------- || -------------- ----------------- ---------- -----------
    1       -0.000 ||    0.000004           0.000         0.004       0.001
    2       -0.000 ||    0.000000           0.000         0.000       0.000
    3        0.000 ||    0.000003           0.000         0.003       0.000
    4        0.000 ||    0.000002           0.000         0.002       0.000
    5        0.000 ||    0.000003           0.000         0.002       0.000
    6        0.000 ||    0.000002           0.000         0.002       0.000
    7      246.606 ||    0.000003           0.000         0.003       0.001
    8      246.606 ||    0.000003           0.000         0.003       0.001
    9      353.969 ||    0.000009           0.000         0.008       0.001
   10      402.117 ||    0.000784           0.018         0.764       0.128
   11      402.117 ||    0.000784           0.018         0.764       0.128
   12      537.894 ||    0.005716           0.132         5.572       0.930
   13      813.991 ||    0.330758           7.631       322.439      53.834
   14      813.991 ||    0.330758           7.631       322.439      53.834
   15     1144.986 ||    0.252775           5.832       246.417      41.142
 ----------------------------------------------------------------------------

 Total times  cpu:      218.1s     wall:      185.3s
