============================== echo of input deck ==============================
ECHO

start molecule

#MEMORY
memory 3584 mb

#TITLE
title "CFCl4"

charge 0

#GEOMETRY
geometry units angstroms print xyz autosym
C          0.01249        0.78594        0.06926
Cl         1.79048        0.78594        0.06926
Cl        -0.58017        1.81550       -1.25361
F         -0.44802        1.27613        1.27601
Cl        -0.58017       -0.87448       -0.16093
end

BASIS "ao basis" SPHERICAL PRINT
#BASIS SET: (7s,4p,1d) -> [3s,2p,1d]
C    S
   1238.4016938              0.54568832082E-02
    186.29004992             0.40638409211E-01
     42.251176346            0.18025593888
     11.676557932            0.46315121755
      3.5930506482           0.44087173314
C    S
      0.40245147363          1.0000000
C    S
      0.13090182668          1.0000000
C    P
      9.4680970621           0.38387871728E-01
      2.0103545142           0.21117025112
      0.54771004707          0.51328172114
C    P
      0.15268613795          1.0000000
C    D
      0.8000000              1.0000000
#BASIS SET: (7s,4p,1d) -> [3s,2p,1d]
F    S
   2894.8325990             -0.53408255515E-02
    435.41939120            -0.39904258866E-01
     98.843328866           -0.17912768038
     27.485198001           -0.46758090825
      8.5405498171          -0.44653131020
F    S
      1.0654578038           1.0000000
F    S
      0.33247346748          1.0000000
F    P
     22.696633924           -0.45212874436E-01
      4.9872339257          -0.23754317067
      1.3491613954          -0.51287353587
F    P
      0.34829881977          1.0000000
F    D
      1.4000000              1.0000000
#BASIS SET: (10s,7p,1d) -> [4s,3p,1d]
Cl    S
  10449.8275660              0.19708362484E-02
   1571.7365221              0.14754727977E-01
    357.12065523             0.66679112875E-01
    100.25185935             0.17228924084
     30.812727554            0.15883786100
Cl    S
     51.923789434           -0.10009298909
      5.7045760975           0.60841752753
      2.3508376809           0.54352153355
Cl    S
      0.44605124672          1.0000000
Cl    S
      0.16848856190          1.0000000
Cl    P
    307.66790569            -0.87801484118E-02
     72.102015515           -0.63563355471E-01
     22.532680262           -0.24016428276
      7.8991765444          -0.47798866557
      2.8767268321          -0.38515850005
Cl    P
      0.77459363955          1.0000000
Cl    P
      0.21037699698          1.0000000
Cl    D
      0.6500000              1.0000000
END

#DFT
dft
  grid medium
  convergence energy 1e-07
  mult 1
  iterations 30
  xc xwpbe 0.80 cpbe96 1.0 hfexch 1.00
  cam 0.2 cam_alpha 0.20 cam_beta 0.80
end

#OPT
driver
  default
  maxiter 100
end

set driver:linopt 0

#TASK
task dft optimize
task dft freq numerical

================================================================================

         Total DFT energy =    -1517.417068792907
@ Step       Energy      Delta E   Gmax     Grms     Xrms     Xmax   Walltime
@ ---- ---------------- -------- -------- -------- -------- -------- --------
@    0   -1517.41706879  0.0D+00  0.04262  0.01505  0.00000  0.00000     12.2
         Total DFT energy =    -1517.419702342270
@    1   -1517.41970234 -2.6D-03  0.01437  0.00530  0.05392  0.16629     24.5
         Total DFT energy =    -1517.420180086858
@    2   -1517.42018009 -4.8D-04  0.00160  0.00073  0.02413  0.05965     35.8
         Total DFT energy =    -1517.420193119832
@    3   -1517.42019312 -1.3D-05  0.00034  0.00011  0.00371  0.00725     45.2
         Total DFT energy =    -1517.420193284780
@    4   -1517.42019328 -1.6D-07  0.00006  0.00003  0.00025  0.00057     52.9
@    4   -1517.42019328 -1.6D-07  0.00006  0.00003  0.00025  0.00057     52.9

 Output coordinates in angstroms (scale by  1.889725989 to convert to a.u.)

  No.       Tag          Charge          X              Y              Z
 ---- ---------------- ---------- -------------- -------------- --------------
    1 C                    6.0000     0.00000000     0.00000000     0.26260834
    2 Cl                  17.0000    -0.11502427    -1.66601987    -0.30035916
    3 Cl                  17.0000     1.50032767     0.73339599    -0.30035916
    4 F                    9.0000     0.00000000    -0.00000000     1.58988882
    5 Cl                  17.0000    -1.38530340     0.93262388    -0.30035916

         Total DFT energy =    -1517.420193297356

                       DFT Final Molecular Orbital Analysis
                       ------------------------------------

 Vector    1  Occ=2.000000D+00  E=-1.015948D+02  Symmetry=e+

 Vector    3  Occ=2.000000D+00  E=-1.015948D+02  Symmetry=a

 Vector    4  Occ=2.000000D+00  E=-2.482243D+01  Symmetry=a

 Vector    5  Occ=2.000000D+00  E=-1.051509D+01  Symmetry=a

 Vector    6  Occ=2.000000D+00  E=-9.585452D+00  Symmetry=e+

 Vector    7  Occ=2.000000D+00  E=-9.585452D+00  Symmetry=e+

 Vector    8  Occ=2.000000D+00  E=-9.585411D+00  Symmetry=a

 Vector    9  Occ=2.000000D+00  E=-7.344796D+00  Symmetry=e+

 Vector   10  Occ=2.000000D+00  E=-7.344796D+00  Symmetry=e+

 Vector   11  Occ=2.000000D+00  E=-7.344773D+00  Symmetry=a

 Vector   12  Occ=2.000000D+00  E=-7.333318D+00  Symmetry=e+

 Vector   13  Occ=2.000000D+00  E=-7.333318D+00  Symmetry=e+

 Vector   14  Occ=2.000000D+00  E=-7.333311D+00  Symmetry=a

 Vector   15  Occ=2.000000D+00  E=-7.333203D+00  Symmetry=a

 Vector   16  Occ=2.000000D+00  E=-7.333184D+00  Symmetry=e+

 Vector   17  Occ=2.000000D+00  E=-7.333184D+00  Symmetry=e+

 Vector   18  Occ=2.000000D+00  E=-1.374396D+00  Symmetry=a

 Vector   19  Occ=2.000000D+00  E=-1.048032D+00  Symmetry=a

 Vector   20  Occ=2.000000D+00  E=-9.568733D-01  Symmetry=e+

 Vector   21  Occ=2.000000D+00  E=-9.568733D-01  Symmetry=e+

 Vector   22  Occ=2.000000D+00  E=-7.571777D-01  Symmetry=a

 Vector   23  Occ=2.000000D+00  E=-6.518258D-01  Symmetry=a

 Vector   24  Occ=2.000000D+00  E=-6.414541D-01  Symmetry=e+

 Vector   25  Occ=2.000000D+00  E=-6.414541D-01  Symmetry=e+

 Vector   26  Occ=2.000000D+00  E=-5.183486D-01  Symmetry=e+

 Vector   27  Occ=2.000000D+00  E=-5.183486D-01  Symmetry=e+

 Vector   28  Occ=2.000000D+00  E=-4.598597D-01  Symmetry=a

 Vector   29  Occ=2.000000D+00  E=-4.466127D-01  Symmetry=e+

 Vector   30  Occ=2.000000D+00  E=-4.466127D-01  Symmetry=e+

 Vector   31  Occ=2.000000D+00  E=-4.151490D-01  Symmetry=e+

 Vector   32  Occ=2.000000D+00  E=-4.151490D-01  Symmetry=e+

 Vector   33  Occ=2.000000D+00  E=-4.002986D-01  Symmetry=a

 Vector   34  Occ=0.000000D+00  E= 4.498144D-02  Symmetry=a

 Vector   35  Occ=0.000000D+00  E= 9.709744D-02  Symmetry=e+

 Vector   36  Occ=0.000000D+00  E= 9.709744D-02  Symmetry=e+

 Vector   37  Occ=0.000000D+00  E= 1.802097D-01  Symmetry=a

 Vector   38  Occ=0.000000D+00  E= 4.224840D-01  Symmetry=a

 Vector   39  Occ=0.000000D+00  E= 4.761219D-01  Symmetry=e+

 Vector   40  Occ=0.000000D+00  E= 4.761219D-01  Symmetry=e+

 Vector   41  Occ=0.000000D+00  E= 5.296429D-01  Symmetry=a

 Vector   42  Occ=0.000000D+00  E= 6.041098D-01  Symmetry=e+

 Vector   43  Occ=0.000000D+00  E= 6.041098D-01  Symmetry=e+

 Vector   44  Occ=0.000000D+00  E= 7.020330D-01  Symmetry=a

 Vector   45  Occ=0.000000D+00  E= 7.206411D-01  Symmetry=e+

 Vector   46  Occ=0.000000D+00  E= 7.206411D-01  Symmetry=e+

 Vector   47  Occ=0.000000D+00  E= 7.857507D-01  Symmetry=a

 Vector   48  Occ=0.000000D+00  E= 7.926440D-01  Symmetry=e+

 Vector   49  Occ=0.000000D+00  E= 7.926440D-01  Symmetry=e+

 Vector   50  Occ=0.000000D+00  E= 8.128336D-01  Symmetry=a

 Vector   51  Occ=0.000000D+00  E= 8.156852D-01  Symmetry=e+

 Vector   52  Occ=0.000000D+00  E= 8.156852D-01  Symmetry=e+

 Vector   53  Occ=0.000000D+00  E= 8.252063D-01  Symmetry=a

 Vector   54  Occ=0.000000D+00  E= 8.410705D-01  Symmetry=e+

 Vector   55  Occ=0.000000D+00  E= 8.410705D-01  Symmetry=e+

 Vector   56  Occ=0.000000D+00  E= 8.571079D-01  Symmetry=a

 Vector   57  Occ=0.000000D+00  E= 8.962603D-01  Symmetry=e+

 Vector   58  Occ=0.000000D+00  E= 8.962603D-01  Symmetry=e+

 Vector   59  Occ=0.000000D+00  E= 8.980365D-01  Symmetry=a

 Vector   60  Occ=0.000000D+00  E= 9.378804D-01  Symmetry=e+

 Vector   61  Occ=0.000000D+00  E= 9.378804D-01  Symmetry=e+

 Vector   62  Occ=0.000000D+00  E= 1.107030D+00  Symmetry=a

 Vector   63  Occ=0.000000D+00  E= 1.110547D+00  Symmetry=a

 Vector   64  Occ=0.000000D+00  E= 1.158116D+00  Symmetry=e+

 Vector   65  Occ=0.000000D+00  E= 1.158116D+00  Symmetry=e+

 Vector   66  Occ=0.000000D+00  E= 1.317634D+00  Symmetry=a

 Vector   67  Occ=0.000000D+00  E= 1.328853D+00  Symmetry=e+

 Vector   68  Occ=0.000000D+00  E= 1.328853D+00  Symmetry=e+

 Vector   69  Occ=0.000000D+00  E= 1.426486D+00  Symmetry=a

 Vector   70  Occ=0.000000D+00  E= 1.479022D+00  Symmetry=e+

 Vector   71  Occ=0.000000D+00  E= 1.479022D+00  Symmetry=e+

 Vector   72  Occ=0.000000D+00  E= 1.758147D+00  Symmetry=e+

 Vector   73  Occ=0.000000D+00  E= 1.758147D+00  Symmetry=e+

 Vector   74  Occ=0.000000D+00  E= 1.949287D+00  Symmetry=a

 Vector   75  Occ=0.000000D+00  E= 2.144711D+00  Symmetry=e+

 Vector   76  Occ=0.000000D+00  E= 2.144711D+00  Symmetry=e+

 Vector   77  Occ=0.000000D+00  E= 2.150591D+00  Symmetry=a

 Vector   78  Occ=0.000000D+00  E= 3.101386D+00  Symmetry=e+

 Vector   79  Occ=0.000000D+00  E= 3.101386D+00  Symmetry=e+

 Vector   80  Occ=0.000000D+00  E= 3.356197D+00  Symmetry=e+

 Vector   81  Occ=0.000000D+00  E= 3.356197D+00  Symmetry=e+

 Vector   82  Occ=0.000000D+00  E= 3.825017D+00  Symmetry=a

     Multipole analysis of the density
     ---------------------------------

     L   x y z        total         alpha         beta         nuclear
     -   - - -        -----         -----         ----         -------
     0   0 0 0     -0.000000    -33.000000    -33.000000     66.000000

     1   1 0 0      0.000000      0.000000      0.000000     -0.000000
     1   0 1 0     -0.000000     -0.000000     -0.000000      0.000000
     1   0 0 1     -0.117837     -0.594025     -0.594025      1.070213

     2   2 0 0    -34.528749   -144.243827   -144.243827    253.958904
     2   1 1 0      0.000000      0.000000      0.000000      0.000000
     2   1 0 1     -0.000000     -0.000000     -0.000000      0.000000
     2   0 2 0    -34.528749   -144.243827   -144.243827    253.958904
     2   0 1 1      0.000000      0.000000      0.000000      0.000000

         Total DFT energy =    -1517.420181774080
         Total DFT energy =    -1517.420181923247
         Total DFT energy =    -1517.420181873069
         Total DFT energy =    -1517.420181805951
         Total DFT energy =    -1517.420174609088
         Total DFT energy =    -1517.420175334717
         Total DFT energy =    -1517.420193805643
         Total DFT energy =    -1517.420193807580
         Total DFT energy =    -1517.420193787458
         Total DFT energy =    -1517.420193816202
         Total DFT energy =    -1517.420176992698
         Total DFT energy =    -1517.420175260655
         Total DFT energy =    -1517.420189354549
         Total DFT energy =    -1517.420190119879
         Total DFT energy =    -1517.420193133104
         Total DFT energy =    -1517.420192653670
         Total DFT energy =    -1517.420194315352
         Total DFT energy =    -1517.420194645585
 Zero-Point correction to Energy  =    7.416 kcal/mol  (  0.011818 au)
 Thermal correction to Energy     =   10.594 kcal/mol  (  0.016883 au)
 Thermal correction to Enthalpy   =   11.186 kcal/mol  (  0.017826 au)
 Total Entropy                    =   73.513 cal/mol-K
   - Translational                =   40.614 cal/mol-K (mol. weight = 135.9050)
   - Rotational                   =   25.619 cal/mol-K (symmetry #  =        3)
   - Vibrational                  =    7.280 cal/mol-K
   - Translational                  =    2.979 cal/mol-K
   - Rotational                     =    2.979 cal/mol-K
   - Vibrational                    =   10.351 cal/mol-K
 P.Frequency       -0.00       -0.00       -0.00       -0.00        0.00        0.00
 P.Frequency      250.36      250.36      362.09      411.70      411.70      558.60
 P.Frequency      880.51      880.51     1184.00

 Normal Eigenvalue ||           Projected Infra Red Intensities
  Mode   [cm**-1]  || [atomic units] [(debye/angs)**2] [(KM/mol)] [arbitrary]
 ------ ---------- || -------------- ----------------- ---------- -----------
    1       -0.000 ||    0.000009           0.000         0.009       0.002
    2       -0.000 ||    0.000006           0.000         0.006       0.001
    3       -0.000 ||    0.000013           0.000         0.013       0.002
    4       -0.000 ||    0.000005           0.000         0.005       0.001
    5        0.000 ||    0.000000           0.000         0.000       0.000
    6        0.000 ||    0.000006           0.000         0.006       0.001
    7      250.364 ||    0.000006           0.000         0.006       0.001
    8      250.364 ||    0.000006           0.000         0.006       0.001
    9      362.086 ||    0.000093           0.002         0.090       0.017
   10      411.695 ||    0.000012           0.000         0.012       0.002
   11      411.695 ||    0.000012           0.000         0.012       0.002
   12      558.604 ||    0.003571           0.082         3.481       0.665
   13      880.510 ||    0.284193           6.557       277.045      52.959
   14      880.510 ||    0.284193           6.557       277.045      52.959
   15     1183.998 ||    0.232822           5.371       226.967      43.386
 ----------------------------------------------------------------------------

 Total times  cpu:      461.9s     wall:      443.8s
