============================== echo of input deck ==============================
ECHO

start molecule

#MEMORY
memory 3584 mb

#TITLE
title "CFCl4"

charge 0

#GEOMETRY
geometry units angstroms print xyz autosym
C          0.01249        0.78594        0.06926
Cl         1.79048        0.78594        0.06926
Cl        -0.58017        1.81550       -1.25361
F         -0.44802        1.27613        1.27601
Cl        -0.58017       -0.87448       -0.16093
end

BASIS "ao basis" SPHERICAL PRINT
#BASIS SET: (7s,4p,1d) -> [3s,2p,1d]
C    S
   1238.4016938              0.54568832082E-02
    186.29004992             0.40638409211E-01
     42.251176346            0.18025593888
     11.676557932            0.46315121755
      3.5930506482           0.44087173314
C    S
      0.40245147363          1.0000000
C    S
      0.13090182668          1.0000000
C    P
      9.4680970621           0.38387871728E-01
      2.0103545142           0.21117025112
      0.54771004707          0.51328172114
C    P
      0.15268613795          1.0000000
C    D
      0.8000000              1.0000000
#BASIS SET: (7s,4p,1d) -> [3s,2p,1d]
F    S
   2894.8325990             -0.53408255515E-02
    435.41939120            -0.39904258866E-01
     98.843328866           -0.17912768038
     27.485198001           -0.46758090825
      8.5405498171          -0.44653131020
F    S
      1.0654578038           1.0000000
F    S
      0.33247346748          1.0000000
F    P
     22.696633924           -0.45212874436E-01
      4.9872339257          -0.23754317067
      1.3491613954          -0.51287353587
F    P
      0.34829881977          1.0000000
F    D
      1.4000000              1.0000000
#BASIS SET: (10s,7p,1d) -> [4s,3p,1d]
Cl    S
  10449.8275660              0.19708362484E-02
   1571.7365221              0.14754727977E-01
    357.12065523             0.66679112875E-01
    100.25185935             0.17228924084
     30.812727554            0.15883786100
Cl    S
     51.923789434           -0.10009298909
      5.7045760975           0.60841752753
      2.3508376809           0.54352153355
Cl    S
      0.44605124672          1.0000000
Cl    S
      0.16848856190          1.0000000
Cl    P
    307.66790569            -0.87801484118E-02
     72.102015515           -0.63563355471E-01
     22.532680262           -0.24016428276
      7.8991765444          -0.47798866557
      2.8767268321          -0.38515850005
Cl    P
      0.77459363955          1.0000000
Cl    P
      0.21037699698          1.0000000
Cl    D
      0.6500000              1.0000000
END

#DFT
dft
  grid medium
  convergence energy 1e-07
  mult 1
  iterations 30
  xc xcampbe96 1.0 cpbe96 1.0 HFexch 1.0
  cam 0.30 cam_alpha 0.0 cam_beta 1.0
end

#OPT
driver
  default
  maxiter 100
end

set driver:linopt 0

#TASK
task dft optimize
task dft freq numerical

================================================================================

         Total DFT energy =    -1516.525793454397
@ Step       Energy      Delta E   Gmax     Grms     Xrms     Xmax   Walltime
@ ---- ---------------- -------- -------- -------- -------- -------- --------
@    0   -1516.52579345  0.0D+00  0.04708  0.01792  0.00000  0.00000     16.1
         Total DFT energy =    -1516.529588453026
@    1   -1516.52958845 -3.8D-03  0.01822  0.00623  0.05588  0.17392     31.2
         Total DFT energy =    -1516.530089247632
@    2   -1516.53008925 -5.0D-04  0.00192  0.00090  0.02404  0.06316     44.8
         Total DFT energy =    -1516.530112986291
@    3   -1516.53011299 -2.4D-05  0.00034  0.00021  0.00513  0.01015     57.5
         Total DFT energy =    -1516.530113504369
@    4   -1516.53011350 -5.2D-07  0.00017  0.00005  0.00053  0.00112     66.8
@    4   -1516.53011350 -5.2D-07  0.00017  0.00005  0.00053  0.00112     66.8

 Output coordinates in angstroms (scale by  1.889725989 to convert to a.u.)

  No.       Tag          Charge          X              Y              Z
 ---- ---------------- ---------- -------------- -------------- --------------
    1 C                    6.0000     0.00000000    -0.00000000     0.26113667
    2 Cl                  17.0000    -0.11425279    -1.65484567    -0.29870723
    3 Cl                  17.0000     1.49026479     0.72847702    -0.29870723
    4 F                    9.0000     0.00000000     0.00000000     1.58640472
    5 Cl                  17.0000    -1.37601200     0.92636866    -0.29870723

         Total DFT energy =    -1516.530113536973

                       DFT Final Molecular Orbital Analysis
                       ------------------------------------

 Vector    1  Occ=2.000000D+00  E=-1.008254D+02  Symmetry=e+

 Vector    3  Occ=2.000000D+00  E=-1.008253D+02  Symmetry=a

 Vector    4  Occ=2.000000D+00  E=-2.447729D+01  Symmetry=a

 Vector    5  Occ=2.000000D+00  E=-1.029697D+01  Symmetry=a

 Vector    6  Occ=2.000000D+00  E=-9.375289D+00  Symmetry=e+

 Vector    7  Occ=2.000000D+00  E=-9.375289D+00  Symmetry=e+

 Vector    8  Occ=2.000000D+00  E=-9.375228D+00  Symmetry=a

 Vector    9  Occ=2.000000D+00  E=-7.207387D+00  Symmetry=e+

 Vector   10  Occ=2.000000D+00  E=-7.207387D+00  Symmetry=e+

 Vector   11  Occ=2.000000D+00  E=-7.207359D+00  Symmetry=a

 Vector   12  Occ=2.000000D+00  E=-7.194236D+00  Symmetry=e+

 Vector   13  Occ=2.000000D+00  E=-7.194236D+00  Symmetry=e+

 Vector   14  Occ=2.000000D+00  E=-7.194227D+00  Symmetry=a

 Vector   15  Occ=2.000000D+00  E=-7.194054D+00  Symmetry=a

 Vector   16  Occ=2.000000D+00  E=-7.194032D+00  Symmetry=e+

 Vector   17  Occ=2.000000D+00  E=-7.194032D+00  Symmetry=e+

 Vector   18  Occ=2.000000D+00  E=-1.346750D+00  Symmetry=a

 Vector   19  Occ=2.000000D+00  E=-1.051904D+00  Symmetry=a

 Vector   20  Occ=2.000000D+00  E=-9.604516D-01  Symmetry=e+

 Vector   21  Occ=2.000000D+00  E=-9.604516D-01  Symmetry=e+

 Vector   22  Occ=2.000000D+00  E=-7.586870D-01  Symmetry=a

 Vector   23  Occ=2.000000D+00  E=-6.611685D-01  Symmetry=a

 Vector   24  Occ=2.000000D+00  E=-6.500150D-01  Symmetry=e+

 Vector   25  Occ=2.000000D+00  E=-6.500150D-01  Symmetry=e+

 Vector   26  Occ=2.000000D+00  E=-5.244139D-01  Symmetry=e+

 Vector   27  Occ=2.000000D+00  E=-5.244139D-01  Symmetry=e+

 Vector   28  Occ=2.000000D+00  E=-4.737104D-01  Symmetry=a

 Vector   29  Occ=2.000000D+00  E=-4.580149D-01  Symmetry=e+

 Vector   30  Occ=2.000000D+00  E=-4.580149D-01  Symmetry=e+

 Vector   31  Occ=2.000000D+00  E=-4.251216D-01  Symmetry=e+

 Vector   32  Occ=2.000000D+00  E=-4.251216D-01  Symmetry=e+

 Vector   33  Occ=2.000000D+00  E=-4.095754D-01  Symmetry=a

 Vector   34  Occ=0.000000D+00  E= 6.101513D-02  Symmetry=a

 Vector   35  Occ=0.000000D+00  E= 1.089461D-01  Symmetry=e+

 Vector   36  Occ=0.000000D+00  E= 1.089461D-01  Symmetry=e+

 Vector   37  Occ=0.000000D+00  E= 1.867838D-01  Symmetry=a

 Vector   38  Occ=0.000000D+00  E= 4.201404D-01  Symmetry=a

 Vector   39  Occ=0.000000D+00  E= 4.766872D-01  Symmetry=e+

 Vector   40  Occ=0.000000D+00  E= 4.766872D-01  Symmetry=e+

 Vector   41  Occ=0.000000D+00  E= 5.275966D-01  Symmetry=a

 Vector   42  Occ=0.000000D+00  E= 6.072695D-01  Symmetry=e+

 Vector   43  Occ=0.000000D+00  E= 6.072695D-01  Symmetry=e+

 Vector   44  Occ=0.000000D+00  E= 7.009964D-01  Symmetry=a

 Vector   45  Occ=0.000000D+00  E= 7.250883D-01  Symmetry=e+

 Vector   46  Occ=0.000000D+00  E= 7.250883D-01  Symmetry=e+

 Vector   47  Occ=0.000000D+00  E= 7.924188D-01  Symmetry=a

 Vector   48  Occ=0.000000D+00  E= 7.969722D-01  Symmetry=e+

 Vector   49  Occ=0.000000D+00  E= 7.969722D-01  Symmetry=e+

 Vector   50  Occ=0.000000D+00  E= 8.179075D-01  Symmetry=a

 Vector   51  Occ=0.000000D+00  E= 8.236467D-01  Symmetry=e+

 Vector   52  Occ=0.000000D+00  E= 8.236467D-01  Symmetry=e+

 Vector   53  Occ=0.000000D+00  E= 8.350763D-01  Symmetry=a

 Vector   54  Occ=0.000000D+00  E= 8.496631D-01  Symmetry=e+

 Vector   55  Occ=0.000000D+00  E= 8.496631D-01  Symmetry=e+

 Vector   56  Occ=0.000000D+00  E= 8.618331D-01  Symmetry=a

 Vector   57  Occ=0.000000D+00  E= 8.963720D-01  Symmetry=e+

 Vector   58  Occ=0.000000D+00  E= 8.963720D-01  Symmetry=e+

 Vector   59  Occ=0.000000D+00  E= 9.008541D-01  Symmetry=a

 Vector   60  Occ=0.000000D+00  E= 9.377305D-01  Symmetry=e+

 Vector   61  Occ=0.000000D+00  E= 9.377305D-01  Symmetry=e+

 Vector   62  Occ=0.000000D+00  E= 1.106642D+00  Symmetry=a

 Vector   63  Occ=0.000000D+00  E= 1.109066D+00  Symmetry=a

 Vector   64  Occ=0.000000D+00  E= 1.158079D+00  Symmetry=e+

 Vector   65  Occ=0.000000D+00  E= 1.158079D+00  Symmetry=e+

 Vector   66  Occ=0.000000D+00  E= 1.318169D+00  Symmetry=a

 Vector   67  Occ=0.000000D+00  E= 1.328605D+00  Symmetry=e+

 Vector   68  Occ=0.000000D+00  E= 1.328605D+00  Symmetry=e+

 Vector   69  Occ=0.000000D+00  E= 1.419927D+00  Symmetry=a

 Vector   70  Occ=0.000000D+00  E= 1.470614D+00  Symmetry=e+

 Vector   71  Occ=0.000000D+00  E= 1.470614D+00  Symmetry=e+

 Vector   72  Occ=0.000000D+00  E= 1.763081D+00  Symmetry=e+

 Vector   73  Occ=0.000000D+00  E= 1.763081D+00  Symmetry=e+

 Vector   74  Occ=0.000000D+00  E= 1.935977D+00  Symmetry=a

 Vector   75  Occ=0.000000D+00  E= 2.144085D+00  Symmetry=a

 Vector   76  Occ=0.000000D+00  E= 2.145029D+00  Symmetry=e+

 Vector   77  Occ=0.000000D+00  E= 2.145029D+00  Symmetry=e+

 Vector   78  Occ=0.000000D+00  E= 3.091045D+00  Symmetry=e+

 Vector   79  Occ=0.000000D+00  E= 3.091045D+00  Symmetry=e+

 Vector   80  Occ=0.000000D+00  E= 3.343225D+00  Symmetry=e+

 Vector   81  Occ=0.000000D+00  E= 3.343225D+00  Symmetry=e+

 Vector   82  Occ=0.000000D+00  E= 3.803702D+00  Symmetry=a

     Multipole analysis of the density
     ---------------------------------

     L   x y z        total         alpha         beta         nuclear
     -   - - -        -----         -----         ----         -------
     0   0 0 0     -0.000000    -33.000000    -33.000000     66.000000

     1   1 0 0     -0.000000     -0.000000     -0.000000      0.000000
     1   0 1 0      0.000000      0.000000      0.000000      0.000000
     1   0 0 1     -0.113897     -0.633687     -0.633687      1.153477

     2   2 0 0    -34.501245   -142.532454   -142.532454    250.563662
     2   1 1 0     -0.000000     -0.000000     -0.000000      0.000000
     2   1 0 1     -0.000000     -0.000000     -0.000000      0.000000
     2   0 2 0    -34.501245   -142.532454   -142.532454    250.563662
     2   0 1 1      0.000000      0.000000      0.000000      0.000000

         Total DFT energy =    -1516.530100421471
         Total DFT energy =    -1516.530100554501
         Total DFT energy =    -1516.530100545951
         Total DFT energy =    -1516.530100414557
         Total DFT energy =    -1516.530091847675
         Total DFT energy =    -1516.530096674749
         Total DFT energy =    -1516.530114273761
         Total DFT energy =    -1516.530114286527
         Total DFT energy =    -1516.530114267155
         Total DFT energy =    -1516.530114290908
         Total DFT energy =    -1516.530097846219
         Total DFT energy =    -1516.530093954345
         Total DFT energy =    -1516.530109497915
         Total DFT energy =    -1516.530109000900
         Total DFT energy =    -1516.530112314293
         Total DFT energy =    -1516.530113000007
         Total DFT energy =    -1516.530114858234
         Total DFT energy =    -1516.530113903377
 Zero-Point correction to Energy  =    7.543 kcal/mol  (  0.012021 au)
 Thermal correction to Energy     =   10.705 kcal/mol  (  0.017060 au)
 Thermal correction to Enthalpy   =   11.297 kcal/mol  (  0.018003 au)
 Total Entropy                    =   73.392 cal/mol-K
   - Translational                =   40.614 cal/mol-K (mol. weight = 135.9050)
   - Rotational                   =   25.583 cal/mol-K (symmetry #  =        3)
   - Vibrational                  =    7.195 cal/mol-K
   - Translational                  =    2.979 cal/mol-K
   - Rotational                     =    2.979 cal/mol-K
   - Vibrational                    =   10.228 cal/mol-K
 P.Frequency       -0.00       -0.00       -0.00       -0.00       -0.00        0.00
 P.Frequency      250.71      250.71      364.73      413.85      413.85      569.19
 P.Frequency      906.12      906.12     1203.85

 Normal Eigenvalue ||           Projected Infra Red Intensities
  Mode   [cm**-1]  || [atomic units] [(debye/angs)**2] [(KM/mol)] [arbitrary]
 ------ ---------- || -------------- ----------------- ---------- -----------
    1       -0.000 ||    0.000000           0.000         0.000       0.000
    2       -0.000 ||    0.000006           0.000         0.006       0.001
    3       -0.000 ||    0.000013           0.000         0.012       0.002
    4       -0.000 ||    0.000000           0.000         0.000       0.000
    5       -0.000 ||    0.000006           0.000         0.006       0.001
    6        0.000 ||    0.000012           0.000         0.012       0.002
    7      250.714 ||    0.000020           0.000         0.019       0.004
    8      250.714 ||    0.000020           0.000         0.019       0.004
    9      364.731 ||    0.000166           0.004         0.161       0.032
   10      413.848 ||    0.000188           0.004         0.184       0.036
   11      413.848 ||    0.000188           0.004         0.184       0.036
   12      569.187 ||    0.003597           0.083         3.507       0.690
   13      906.118 ||    0.276322           6.375       269.373      53.009
   14      906.118 ||    0.276322           6.375       269.373      53.009
   15     1203.849 ||    0.225045           5.192       219.385      43.172
 ----------------------------------------------------------------------------

 Total times  cpu:      572.6s     wall:      550.8s
