============================== echo of input deck ==============================
ECHO

start molecule

#MEMORY
memory 3584 mb

#TITLE
title "CFCl4"

charge 0

#GEOMETRY
geometry units angstroms print xyz autosym
C          0.01249        0.78594        0.06926
Cl         1.79048        0.78594        0.06926
Cl        -0.58017        1.81550       -1.25361
F         -0.44802        1.27613        1.27601
Cl        -0.58017       -0.87448       -0.16093
end

BASIS "ao basis" SPHERICAL PRINT
#BASIS SET: (7s,4p,1d) -> [3s,2p,1d]
C    S
   1238.4016938              0.54568832082E-02
    186.29004992             0.40638409211E-01
     42.251176346            0.18025593888
     11.676557932            0.46315121755
      3.5930506482           0.44087173314
C    S
      0.40245147363          1.0000000
C    S
      0.13090182668          1.0000000
C    P
      9.4680970621           0.38387871728E-01
      2.0103545142           0.21117025112
      0.54771004707          0.51328172114
C    P
      0.15268613795          1.0000000
C    D
      0.8000000              1.0000000
#BASIS SET: (7s,4p,1d) -> [3s,2p,1d]
F    S
   2894.8325990             -0.53408255515E-02
    435.41939120            -0.39904258866E-01
     98.843328866           -0.17912768038
     27.485198001           -0.46758090825
      8.5405498171          -0.44653131020
F    S
      1.0654578038           1.0000000
F    S
      0.33247346748          1.0000000
F    P
     22.696633924           -0.45212874436E-01
      4.9872339257          -0.23754317067
      1.3491613954          -0.51287353587
F    P
      0.34829881977          1.0000000
F    D
      1.4000000              1.0000000
#BASIS SET: (10s,7p,1d) -> [4s,3p,1d]
Cl    S
  10449.8275660              0.19708362484E-02
   1571.7365221              0.14754727977E-01
    357.12065523             0.66679112875E-01
    100.25185935             0.17228924084
     30.812727554            0.15883786100
Cl    S
     51.923789434           -0.10009298909
      5.7045760975           0.60841752753
      2.3508376809           0.54352153355
Cl    S
      0.44605124672          1.0000000
Cl    S
      0.16848856190          1.0000000
Cl    P
    307.66790569            -0.87801484118E-02
     72.102015515           -0.63563355471E-01
     22.532680262           -0.24016428276
      7.8991765444          -0.47798866557
      2.8767268321          -0.38515850005
Cl    P
      0.77459363955          1.0000000
Cl    P
      0.21037699698          1.0000000
Cl    D
      0.6500000              1.0000000
END

#DFT
dft
  grid medium
  convergence energy 1e-07
  mult 1
  iterations 30
  xc b3lyp
end

#OPT
driver
  default
  maxiter 100
end

set driver:linopt 0

#TASK
task dft optimize
task dft freq numerical

================================================================================

         Total DFT energy =    -1518.017141168975
@ Step       Energy      Delta E   Gmax     Grms     Xrms     Xmax   Walltime
@ ---- ---------------- -------- -------- -------- -------- -------- --------
@    0   -1518.01714117  0.0D+00  0.03278  0.01091  0.00000  0.00000      4.9
         Total DFT energy =    -1518.018655098844
@    1   -1518.01865510 -1.5D-03  0.00760  0.00388  0.05307  0.14670      8.7
         Total DFT energy =    -1518.019110378543
@    2   -1518.01911038 -4.6D-04  0.00137  0.00082  0.02178  0.04881     12.3
         Total DFT energy =    -1518.019124093813
@    3   -1518.01912409 -1.4D-05  0.00048  0.00028  0.00156  0.00292     15.7
         Total DFT energy =    -1518.019125960338
@    4   -1518.01912596 -1.9D-06  0.00003  0.00001  0.00089  0.00182     19.0
         Total DFT energy =    -1518.019125962040
@    5   -1518.01912596 -1.7D-09  0.00000  0.00000  0.00003  0.00006     21.7
@    5   -1518.01912596 -1.7D-09  0.00000  0.00000  0.00003  0.00006     21.7

 Output coordinates in angstroms (scale by  1.889725989 to convert to a.u.)

  No.       Tag          Charge          X              Y              Z
 ---- ---------------- ---------- -------------- -------------- --------------
    1 C                    6.0000     0.00000000     0.00000000     0.26406675
    2 Cl                  17.0000    -0.11650045    -1.68740086    -0.30327990
    3 Cl                  17.0000     1.51958224     0.74280809    -0.30327990
    4 F                    9.0000     0.00000000     0.00000000     1.59719264
    5 Cl                  17.0000    -1.40308179     0.94459278    -0.30327990

         Total DFT energy =    -1518.019125961270

                       DFT Final Molecular Orbital Analysis
                       ------------------------------------

 Vector    1  Occ=2.000000D+00  E=-1.015339D+02  Symmetry=e+

 Vector    3  Occ=2.000000D+00  E=-1.015338D+02  Symmetry=a

 Vector    4  Occ=2.000000D+00  E=-2.474734D+01  Symmetry=a

 Vector    5  Occ=2.000000D+00  E=-1.043826D+01  Symmetry=a

 Vector    6  Occ=2.000000D+00  E=-9.489858D+00  Symmetry=e+

 Vector    7  Occ=2.000000D+00  E=-9.489858D+00  Symmetry=e+

 Vector    8  Occ=2.000000D+00  E=-9.489813D+00  Symmetry=a

 Vector    9  Occ=2.000000D+00  E=-7.259507D+00  Symmetry=e+

 Vector   10  Occ=2.000000D+00  E=-7.259507D+00  Symmetry=e+

 Vector   11  Occ=2.000000D+00  E=-7.259482D+00  Symmetry=a

 Vector   12  Occ=2.000000D+00  E=-7.248232D+00  Symmetry=e+

 Vector   13  Occ=2.000000D+00  E=-7.248232D+00  Symmetry=e+

 Vector   14  Occ=2.000000D+00  E=-7.248226D+00  Symmetry=a

 Vector   15  Occ=2.000000D+00  E=-7.248147D+00  Symmetry=a

 Vector   16  Occ=2.000000D+00  E=-7.248127D+00  Symmetry=e+

 Vector   17  Occ=2.000000D+00  E=-7.248127D+00  Symmetry=e+

 Vector   18  Occ=2.000000D+00  E=-1.271720D+00  Symmetry=a

 Vector   19  Occ=2.000000D+00  E=-9.380177D-01  Symmetry=a

 Vector   20  Occ=2.000000D+00  E=-8.547163D-01  Symmetry=e+

 Vector   21  Occ=2.000000D+00  E=-8.547163D-01  Symmetry=e+

 Vector   22  Occ=2.000000D+00  E=-6.634075D-01  Symmetry=a

 Vector   23  Occ=2.000000D+00  E=-5.583874D-01  Symmetry=a

 Vector   24  Occ=2.000000D+00  E=-5.473180D-01  Symmetry=e+

 Vector   25  Occ=2.000000D+00  E=-5.473180D-01  Symmetry=e+

 Vector   26  Occ=2.000000D+00  E=-4.299506D-01  Symmetry=e+

 Vector   27  Occ=2.000000D+00  E=-4.299506D-01  Symmetry=e+

 Vector   28  Occ=2.000000D+00  E=-3.697161D-01  Symmetry=a

 Vector   29  Occ=2.000000D+00  E=-3.592201D-01  Symmetry=e+

 Vector   30  Occ=2.000000D+00  E=-3.592201D-01  Symmetry=e+

 Vector   31  Occ=2.000000D+00  E=-3.301934D-01  Symmetry=e+

 Vector   32  Occ=2.000000D+00  E=-3.301934D-01  Symmetry=e+

 Vector   33  Occ=2.000000D+00  E=-3.166231D-01  Symmetry=a

 Vector   34  Occ=0.000000D+00  E=-3.611245D-02  Symmetry=a

 Vector   35  Occ=0.000000D+00  E= 1.722451D-02  Symmetry=e+

 Vector   36  Occ=0.000000D+00  E= 1.722451D-02  Symmetry=e+

 Vector   37  Occ=0.000000D+00  E= 1.056853D-01  Symmetry=a

 Vector   38  Occ=0.000000D+00  E= 3.491303D-01  Symmetry=a

 Vector   39  Occ=0.000000D+00  E= 4.066138D-01  Symmetry=e+

 Vector   40  Occ=0.000000D+00  E= 4.066138D-01  Symmetry=e+

 Vector   41  Occ=0.000000D+00  E= 4.451249D-01  Symmetry=a

 Vector   42  Occ=0.000000D+00  E= 5.232993D-01  Symmetry=e+

 Vector   43  Occ=0.000000D+00  E= 5.232993D-01  Symmetry=e+

 Vector   44  Occ=0.000000D+00  E= 6.293686D-01  Symmetry=a

 Vector   45  Occ=0.000000D+00  E= 6.547320D-01  Symmetry=e+

 Vector   46  Occ=0.000000D+00  E= 6.547320D-01  Symmetry=e+

 Vector   47  Occ=0.000000D+00  E= 7.117177D-01  Symmetry=a

 Vector   48  Occ=0.000000D+00  E= 7.152887D-01  Symmetry=e+

 Vector   49  Occ=0.000000D+00  E= 7.152887D-01  Symmetry=e+

 Vector   50  Occ=0.000000D+00  E= 7.357623D-01  Symmetry=a

 Vector   51  Occ=0.000000D+00  E= 7.408585D-01  Symmetry=e+

 Vector   52  Occ=0.000000D+00  E= 7.408585D-01  Symmetry=e+

 Vector   53  Occ=0.000000D+00  E= 7.503282D-01  Symmetry=a

 Vector   54  Occ=0.000000D+00  E= 7.570612D-01  Symmetry=e+

 Vector   55  Occ=0.000000D+00  E= 7.570612D-01  Symmetry=e+

 Vector   56  Occ=0.000000D+00  E= 7.673926D-01  Symmetry=a

 Vector   57  Occ=0.000000D+00  E= 8.119509D-01  Symmetry=a

 Vector   58  Occ=0.000000D+00  E= 8.121235D-01  Symmetry=e+

 Vector   59  Occ=0.000000D+00  E= 8.121235D-01  Symmetry=e+

 Vector   60  Occ=0.000000D+00  E= 8.500529D-01  Symmetry=e+

 Vector   61  Occ=0.000000D+00  E= 8.500529D-01  Symmetry=e+

 Vector   62  Occ=0.000000D+00  E= 1.012585D+00  Symmetry=a

 Vector   63  Occ=0.000000D+00  E= 1.021172D+00  Symmetry=a

 Vector   64  Occ=0.000000D+00  E= 1.068448D+00  Symmetry=e+

 Vector   65  Occ=0.000000D+00  E= 1.068448D+00  Symmetry=e+

 Vector   66  Occ=0.000000D+00  E= 1.228803D+00  Symmetry=a

 Vector   67  Occ=0.000000D+00  E= 1.234148D+00  Symmetry=e+

 Vector   68  Occ=0.000000D+00  E= 1.234148D+00  Symmetry=e+

 Vector   69  Occ=0.000000D+00  E= 1.337683D+00  Symmetry=a

 Vector   70  Occ=0.000000D+00  E= 1.382791D+00  Symmetry=e+

 Vector   71  Occ=0.000000D+00  E= 1.382791D+00  Symmetry=e+

 Vector   72  Occ=0.000000D+00  E= 1.680191D+00  Symmetry=e+

 Vector   73  Occ=0.000000D+00  E= 1.680191D+00  Symmetry=e+

 Vector   74  Occ=0.000000D+00  E= 1.869100D+00  Symmetry=a

 Vector   75  Occ=0.000000D+00  E= 2.059782D+00  Symmetry=e+

 Vector   76  Occ=0.000000D+00  E= 2.059782D+00  Symmetry=e+

 Vector   77  Occ=0.000000D+00  E= 2.063535D+00  Symmetry=a

 Vector   78  Occ=0.000000D+00  E= 3.025296D+00  Symmetry=e+

 Vector   79  Occ=0.000000D+00  E= 3.025296D+00  Symmetry=e+

 Vector   80  Occ=0.000000D+00  E= 3.274495D+00  Symmetry=e+

 Vector   81  Occ=0.000000D+00  E= 3.274495D+00  Symmetry=e+

 Vector   82  Occ=0.000000D+00  E= 3.738377D+00  Symmetry=a

     Multipole analysis of the density
     ---------------------------------

     L   x y z        total         alpha         beta         nuclear
     -   - - -        -----         -----         ----         -------
     0   0 0 0     -0.000000    -33.000000    -33.000000     66.000000

     1   1 0 0      0.000000      0.000000      0.000000      0.000000
     1   0 1 0     -0.000000     -0.000000     -0.000000      0.000000
     1   0 0 1     -0.125315     -0.527397     -0.527397      0.929480

     2   2 0 0    -34.412778   -147.465955   -147.465955    260.519133
     2   1 1 0      0.000000      0.000000      0.000000      0.000000
     2   1 0 1     -0.000000     -0.000000     -0.000000      0.000000
     2   0 2 0    -34.412778   -147.465955   -147.465955    260.519133
     2   0 1 1      0.000000      0.000000      0.000000      0.000000

         Total DFT energy =    -1518.019109415796
         Total DFT energy =    -1518.019109459292
         Total DFT energy =    -1518.019109478306
         Total DFT energy =    -1518.019109429910
         Total DFT energy =    -1518.019102054344
         Total DFT energy =    -1518.019102378609
         Total DFT energy =    -1518.019119599403
         Total DFT energy =    -1518.019119584113
         Total DFT energy =    -1518.019119594428
         Total DFT energy =    -1518.019119578873
         Total DFT energy =    -1518.019103508019
         Total DFT energy =    -1518.019102964987
         Total DFT energy =    -1518.019116376844
         Total DFT energy =    -1518.019116449029
         Total DFT energy =    -1518.019119093399
         Total DFT energy =    -1518.019119070738
         Total DFT energy =    -1518.019120361708
         Total DFT energy =    -1518.019120420422
 Zero-Point correction to Energy  =    7.062 kcal/mol  (  0.011254 au)
 Thermal correction to Energy     =   10.315 kcal/mol  (  0.016438 au)
 Thermal correction to Enthalpy   =   10.907 kcal/mol  (  0.017381 au)
 Total Entropy                    =   74.021 cal/mol-K
   - Translational                =   40.614 cal/mol-K (mol. weight = 135.9050)
   - Rotational                   =   25.686 cal/mol-K (symmetry #  =        3)
   - Vibrational                  =    7.720 cal/mol-K
   - Translational                  =    2.979 cal/mol-K
   - Rotational                     =    2.979 cal/mol-K
   - Vibrational                    =   10.740 cal/mol-K
 P.Frequency       -0.00       -0.00       -0.00        0.00        0.00        0.00
 P.Frequency      241.68      241.68      348.71      396.65      396.65      529.08
 P.Frequency      822.96      822.96     1142.00

 Normal Eigenvalue ||           Projected Infra Red Intensities
  Mode   [cm**-1]  || [atomic units] [(debye/angs)**2] [(KM/mol)] [arbitrary]
 ------ ---------- || -------------- ----------------- ---------- -----------
    1       -0.000 ||    0.000006           0.000         0.006       0.001
    2       -0.000 ||    0.000008           0.000         0.008       0.002
    3       -0.000 ||    0.000007           0.000         0.007       0.001
    4        0.000 ||    0.000000           0.000         0.000       0.000
    5        0.000 ||    0.000004           0.000         0.004       0.001
    6        0.000 ||    0.000011           0.000         0.011       0.002
    7      241.681 ||    0.000000           0.000         0.000       0.000
    8      241.681 ||    0.000000           0.000         0.000       0.000
    9      348.706 ||    0.000001           0.000         0.001       0.000
   10      396.654 ||    0.000311           0.007         0.303       0.058
   11      396.654 ||    0.000311           0.007         0.303       0.058
   12      529.080 ||    0.004219           0.097         4.113       0.786
   13      822.963 ||    0.285165           6.579       277.993      53.125
   14      822.963 ||    0.285165           6.579       277.993      53.125
   15     1142.002 ||    0.229962           5.305       224.178      42.841
 ----------------------------------------------------------------------------

 Total times  cpu:      158.4s     wall:      140.1s
