============================== echo of input deck ==============================
ECHO

start molecule

#MEMORY
memory 3584 mb

#TITLE
title "CFCl4"

charge 0

#GEOMETRY
geometry units angstroms print xyz autosym
C          0.01249        0.78594        0.06926
Cl         1.79048        0.78594        0.06926
Cl        -0.58017        1.81550       -1.25361
F         -0.44802        1.27613        1.27601
Cl        -0.58017       -0.87448       -0.16093
end

BASIS "ao basis" SPHERICAL PRINT
#BASIS SET: (7s,4p,1d) -> [3s,2p,1d]
C    S
   1238.4016938              0.54568832082E-02
    186.29004992             0.40638409211E-01
     42.251176346            0.18025593888
     11.676557932            0.46315121755
      3.5930506482           0.44087173314
C    S
      0.40245147363          1.0000000
C    S
      0.13090182668          1.0000000
C    P
      9.4680970621           0.38387871728E-01
      2.0103545142           0.21117025112
      0.54771004707          0.51328172114
C    P
      0.15268613795          1.0000000
C    D
      0.8000000              1.0000000
#BASIS SET: (7s,4p,1d) -> [3s,2p,1d]
F    S
   2894.8325990             -0.53408255515E-02
    435.41939120            -0.39904258866E-01
     98.843328866           -0.17912768038
     27.485198001           -0.46758090825
      8.5405498171          -0.44653131020
F    S
      1.0654578038           1.0000000
F    S
      0.33247346748          1.0000000
F    P
     22.696633924           -0.45212874436E-01
      4.9872339257          -0.23754317067
      1.3491613954          -0.51287353587
F    P
      0.34829881977          1.0000000
F    D
      1.4000000              1.0000000
#BASIS SET: (10s,7p,1d) -> [4s,3p,1d]
Cl    S
  10449.8275660              0.19708362484E-02
   1571.7365221              0.14754727977E-01
    357.12065523             0.66679112875E-01
    100.25185935             0.17228924084
     30.812727554            0.15883786100
Cl    S
     51.923789434           -0.10009298909
      5.7045760975           0.60841752753
      2.3508376809           0.54352153355
Cl    S
      0.44605124672          1.0000000
Cl    S
      0.16848856190          1.0000000
Cl    P
    307.66790569            -0.87801484118E-02
     72.102015515           -0.63563355471E-01
     22.532680262           -0.24016428276
      7.8991765444          -0.47798866557
      2.8767268321          -0.38515850005
Cl    P
      0.77459363955          1.0000000
Cl    P
      0.21037699698          1.0000000
Cl    D
      0.6500000              1.0000000
END

#DFT
dft
  grid medium
  convergence energy 1e-07
  mult 1
  iterations 30
  xc xperdew91 perdew91
end

#OPT
driver
  default
  maxiter 100
end

set driver:linopt 0

#TASK
task dft optimize
task dft freq numerical

================================================================================

         Total DFT energy =    -1517.911190714651
@ Step       Energy      Delta E   Gmax     Grms     Xrms     Xmax   Walltime
@ ---- ---------------- -------- -------- -------- -------- -------- --------
@    0   -1517.91119071  0.0D+00  0.02660  0.00897  0.00000  0.00000      4.5
         Total DFT energy =    -1517.912628909902
@    1   -1517.91262891 -1.4D-03  0.00323  0.00102  0.02830  0.07984      8.2
         Total DFT energy =    -1517.912643604104
@    2   -1517.91264360 -1.5D-05  0.00044  0.00014  0.00215  0.00714     11.5
         Total DFT energy =    -1517.912643854933
@    3   -1517.91264385 -2.5D-07  0.00000  0.00000  0.00030  0.00101     14.4
@    3   -1517.91264385 -2.5D-07  0.00000  0.00000  0.00030  0.00101     14.4

 Output coordinates in angstroms (scale by  1.889725989 to convert to a.u.)

  No.       Tag          Charge          X              Y              Z
 ---- ---------------- ---------- -------------- -------------- --------------
    1 C                    6.0000     0.00000000     0.00000000     0.26630883
    2 Cl                  17.0000    -0.11661480    -1.68905720    -0.30676242
    3 Cl                  17.0000     1.52107385     0.74353722    -0.30676242
    4 F                    9.0000     0.00000000     0.00000000     1.60539812
    5 Cl                  17.0000    -1.40445904     0.94551998    -0.30676242

         Total DFT energy =    -1517.912643870504

                       DFT Final Molecular Orbital Analysis
                       ------------------------------------

 Vector    1  Occ=2.000000D+00  E=-1.007112D+02  Symmetry=e+

 Vector    3  Occ=2.000000D+00  E=-1.007112D+02  Symmetry=a

 Vector    4  Occ=2.000000D+00  E=-2.433817D+01  Symmetry=a

 Vector    5  Occ=2.000000D+00  E=-1.015329D+01  Symmetry=a

 Vector    6  Occ=2.000000D+00  E=-9.209215D+00  Symmetry=e+

 Vector    7  Occ=2.000000D+00  E=-9.209215D+00  Symmetry=e+

 Vector    8  Occ=2.000000D+00  E=-9.209166D+00  Symmetry=a

 Vector    9  Occ=2.000000D+00  E=-7.046326D+00  Symmetry=e+

 Vector   10  Occ=2.000000D+00  E=-7.046326D+00  Symmetry=e+

 Vector   11  Occ=2.000000D+00  E=-7.046303D+00  Symmetry=a

 Vector   12  Occ=2.000000D+00  E=-7.033298D+00  Symmetry=e+

 Vector   13  Occ=2.000000D+00  E=-7.033298D+00  Symmetry=e+

 Vector   14  Occ=2.000000D+00  E=-7.033293D+00  Symmetry=a

 Vector   15  Occ=2.000000D+00  E=-7.033192D+00  Symmetry=a

 Vector   16  Occ=2.000000D+00  E=-7.033171D+00  Symmetry=e+

 Vector   17  Occ=2.000000D+00  E=-7.033171D+00  Symmetry=e+

 Vector   18  Occ=2.000000D+00  E=-1.166100D+00  Symmetry=a

 Vector   19  Occ=2.000000D+00  E=-8.591276D-01  Symmetry=a

 Vector   20  Occ=2.000000D+00  E=-7.799615D-01  Symmetry=e+

 Vector   21  Occ=2.000000D+00  E=-7.799615D-01  Symmetry=e+

 Vector   22  Occ=2.000000D+00  E=-5.998865D-01  Symmetry=a

 Vector   23  Occ=2.000000D+00  E=-5.065510D-01  Symmetry=a

 Vector   24  Occ=2.000000D+00  E=-4.901607D-01  Symmetry=e+

 Vector   25  Occ=2.000000D+00  E=-4.901607D-01  Symmetry=e+

 Vector   26  Occ=2.000000D+00  E=-3.777298D-01  Symmetry=e+

 Vector   27  Occ=2.000000D+00  E=-3.777298D-01  Symmetry=e+

 Vector   28  Occ=2.000000D+00  E=-3.268717D-01  Symmetry=a

 Vector   29  Occ=2.000000D+00  E=-3.172654D-01  Symmetry=e+

 Vector   30  Occ=2.000000D+00  E=-3.172654D-01  Symmetry=e+

 Vector   31  Occ=2.000000D+00  E=-2.880946D-01  Symmetry=e+

 Vector   32  Occ=2.000000D+00  E=-2.880946D-01  Symmetry=e+

 Vector   33  Occ=2.000000D+00  E=-2.751507D-01  Symmetry=a

 Vector   34  Occ=0.000000D+00  E=-7.199373D-02  Symmetry=a

 Vector   35  Occ=0.000000D+00  E=-2.155309D-02  Symmetry=e+

 Vector   36  Occ=0.000000D+00  E=-2.155309D-02  Symmetry=e+

 Vector   37  Occ=0.000000D+00  E= 5.878860D-02  Symmetry=a

 Vector   38  Occ=0.000000D+00  E= 3.129891D-01  Symmetry=a

 Vector   39  Occ=0.000000D+00  E= 3.643722D-01  Symmetry=e+

 Vector   40  Occ=0.000000D+00  E= 3.643722D-01  Symmetry=e+

 Vector   41  Occ=0.000000D+00  E= 3.934598D-01  Symmetry=a

 Vector   42  Occ=0.000000D+00  E= 4.830355D-01  Symmetry=e+

 Vector   43  Occ=0.000000D+00  E= 4.830355D-01  Symmetry=e+

 Vector   44  Occ=0.000000D+00  E= 5.841050D-01  Symmetry=a

 Vector   45  Occ=0.000000D+00  E= 5.973733D-01  Symmetry=e+

 Vector   46  Occ=0.000000D+00  E= 5.973733D-01  Symmetry=e+

 Vector   47  Occ=0.000000D+00  E= 6.522433D-01  Symmetry=a

 Vector   48  Occ=0.000000D+00  E= 6.595466D-01  Symmetry=e+

 Vector   49  Occ=0.000000D+00  E= 6.595466D-01  Symmetry=e+

 Vector   50  Occ=0.000000D+00  E= 6.800262D-01  Symmetry=a

 Vector   51  Occ=0.000000D+00  E= 6.827554D-01  Symmetry=e+

 Vector   52  Occ=0.000000D+00  E= 6.827554D-01  Symmetry=e+

 Vector   53  Occ=0.000000D+00  E= 6.913023D-01  Symmetry=a

 Vector   54  Occ=0.000000D+00  E= 6.969315D-01  Symmetry=e+

 Vector   55  Occ=0.000000D+00  E= 6.969315D-01  Symmetry=e+

 Vector   56  Occ=0.000000D+00  E= 7.087913D-01  Symmetry=a

 Vector   57  Occ=0.000000D+00  E= 7.576425D-01  Symmetry=e+

 Vector   58  Occ=0.000000D+00  E= 7.576425D-01  Symmetry=e+

 Vector   59  Occ=0.000000D+00  E= 7.581239D-01  Symmetry=a

 Vector   60  Occ=0.000000D+00  E= 7.956410D-01  Symmetry=e+

 Vector   61  Occ=0.000000D+00  E= 7.956410D-01  Symmetry=e+

 Vector   62  Occ=0.000000D+00  E= 9.570395D-01  Symmetry=a

 Vector   63  Occ=0.000000D+00  E= 9.645975D-01  Symmetry=a

 Vector   64  Occ=0.000000D+00  E= 1.008570D+00  Symmetry=e+

 Vector   65  Occ=0.000000D+00  E= 1.008570D+00  Symmetry=e+

 Vector   66  Occ=0.000000D+00  E= 1.168123D+00  Symmetry=a

 Vector   67  Occ=0.000000D+00  E= 1.169494D+00  Symmetry=e+

 Vector   68  Occ=0.000000D+00  E= 1.169494D+00  Symmetry=e+

 Vector   69  Occ=0.000000D+00  E= 1.272739D+00  Symmetry=a

 Vector   70  Occ=0.000000D+00  E= 1.316547D+00  Symmetry=e+

 Vector   71  Occ=0.000000D+00  E= 1.316547D+00  Symmetry=e+

 Vector   72  Occ=0.000000D+00  E= 1.609705D+00  Symmetry=e+

 Vector   73  Occ=0.000000D+00  E= 1.609705D+00  Symmetry=e+

 Vector   74  Occ=0.000000D+00  E= 1.803742D+00  Symmetry=a

 Vector   75  Occ=0.000000D+00  E= 1.974355D+00  Symmetry=a

 Vector   76  Occ=0.000000D+00  E= 1.987502D+00  Symmetry=e+

 Vector   77  Occ=0.000000D+00  E= 1.987502D+00  Symmetry=e+

 Vector   78  Occ=0.000000D+00  E= 2.929917D+00  Symmetry=e+

 Vector   79  Occ=0.000000D+00  E= 2.929917D+00  Symmetry=e+

 Vector   80  Occ=0.000000D+00  E= 3.169005D+00  Symmetry=e+

 Vector   81  Occ=0.000000D+00  E= 3.169005D+00  Symmetry=e+

 Vector   82  Occ=0.000000D+00  E= 3.627542D+00  Symmetry=a

     Multipole analysis of the density
     ---------------------------------

     L   x y z        total         alpha         beta         nuclear
     -   - - -        -----         -----         ----         -------
     0   0 0 0     -0.000000    -33.000000    -33.000000     66.000000

     1   1 0 0     -0.000000     -0.000000     -0.000000      0.000000
     1   0 1 0     -0.000000     -0.000000     -0.000000      0.000000
     1   0 0 1     -0.086050     -0.422437     -0.422437      0.758825

     2   2 0 0    -34.353267   -147.692049   -147.692049    261.030830
     2   1 1 0     -0.000000     -0.000000     -0.000000      0.000000
     2   1 0 1     -0.000000     -0.000000     -0.000000      0.000000
     2   0 2 0    -34.353267   -147.692049   -147.692049    261.030830
     2   0 1 1      0.000000      0.000000      0.000000      0.000000

         Total DFT energy =    -1517.912631057260
         Total DFT energy =    -1517.912631121648
         Total DFT energy =    -1517.912631101041
         Total DFT energy =    -1517.912631076062
         Total DFT energy =    -1517.912623902796
         Total DFT energy =    -1517.912624133852
         Total DFT energy =    -1517.912640401234
         Total DFT energy =    -1517.912640373600
         Total DFT energy =    -1517.912640391097
         Total DFT energy =    -1517.912640385015
         Total DFT energy =    -1517.912625036252
         Total DFT energy =    -1517.912624860826
         Total DFT energy =    -1517.912637375538
         Total DFT energy =    -1517.912637400448
         Total DFT energy =    -1517.912639916360
         Total DFT energy =    -1517.912639892321
         Total DFT energy =    -1517.912641101713
         Total DFT energy =    -1517.912641138378
 Zero-Point correction to Energy  =    6.847 kcal/mol  (  0.010911 au)
 Thermal correction to Energy     =   10.149 kcal/mol  (  0.016174 au)
 Thermal correction to Enthalpy   =   10.741 kcal/mol  (  0.017118 au)
 Total Entropy                    =   74.345 cal/mol-K
   - Translational                =   40.614 cal/mol-K (mol. weight = 135.9050)
   - Rotational                   =   25.698 cal/mol-K (symmetry #  =        3)
   - Vibrational                  =    8.032 cal/mol-K
   - Translational                  =    2.979 cal/mol-K
   - Rotational                     =    2.979 cal/mol-K
   - Vibrational                    =   10.976 cal/mol-K
 P.Frequency       -0.00       -0.00       -0.00       -0.00        0.00        0.00
 P.Frequency      233.81      233.81      340.82      386.41      386.41      519.38
 P.Frequency      791.54      791.54     1107.98

 Normal Eigenvalue ||           Projected Infra Red Intensities
  Mode   [cm**-1]  || [atomic units] [(debye/angs)**2] [(KM/mol)] [arbitrary]
 ------ ---------- || -------------- ----------------- ---------- -----------
    1       -0.000 ||    0.000001           0.000         0.001       0.000
    2       -0.000 ||    0.000002           0.000         0.002       0.000
    3       -0.000 ||    0.000001           0.000         0.001       0.000
    4       -0.000 ||    0.000004           0.000         0.004       0.001
    5        0.000 ||    0.000005           0.000         0.004       0.001
    6        0.000 ||    0.000003           0.000         0.003       0.000
    7      233.814 ||    0.000010           0.000         0.010       0.002
    8      233.814 ||    0.000010           0.000         0.010       0.002
    9      340.815 ||    0.000007           0.000         0.007       0.001
   10      386.412 ||    0.001036           0.024         1.010       0.190
   11      386.412 ||    0.001036           0.024         1.010       0.190
   12      519.379 ||    0.004602           0.106         4.486       0.843
   13      791.536 ||    0.294659           6.798       287.248      53.996
   14      791.536 ||    0.294659           6.798       287.248      53.996
   15     1107.976 ||    0.222528           5.134       216.931      40.778
 ----------------------------------------------------------------------------

 Total times  cpu:      157.9s     wall:      136.3s
