============================== echo of input deck ==============================
ECHO

start molecule

#MEMORY
memory 3584 mb

#TITLE
title "CFCl4"

charge 0

#GEOMETRY
geometry units angstroms print xyz autosym
C          0.01249        0.78594        0.06926
Cl         1.79048        0.78594        0.06926
Cl        -0.58017        1.81550       -1.25361
F         -0.44802        1.27613        1.27601
Cl        -0.58017       -0.87448       -0.16093
end

BASIS "ao basis" SPHERICAL PRINT
#BASIS SET: (7s,4p,1d) -> [3s,2p,1d]
C    S
   1238.4016938              0.54568832082E-02
    186.29004992             0.40638409211E-01
     42.251176346            0.18025593888
     11.676557932            0.46315121755
      3.5930506482           0.44087173314
C    S
      0.40245147363          1.0000000
C    S
      0.13090182668          1.0000000
C    P
      9.4680970621           0.38387871728E-01
      2.0103545142           0.21117025112
      0.54771004707          0.51328172114
C    P
      0.15268613795          1.0000000
C    D
      0.8000000              1.0000000
#BASIS SET: (7s,4p,1d) -> [3s,2p,1d]
F    S
   2894.8325990             -0.53408255515E-02
    435.41939120            -0.39904258866E-01
     98.843328866           -0.17912768038
     27.485198001           -0.46758090825
      8.5405498171          -0.44653131020
F    S
      1.0654578038           1.0000000
F    S
      0.33247346748          1.0000000
F    P
     22.696633924           -0.45212874436E-01
      4.9872339257          -0.23754317067
      1.3491613954          -0.51287353587
F    P
      0.34829881977          1.0000000
F    D
      1.4000000              1.0000000
#BASIS SET: (10s,7p,1d) -> [4s,3p,1d]
Cl    S
  10449.8275660              0.19708362484E-02
   1571.7365221              0.14754727977E-01
    357.12065523             0.66679112875E-01
    100.25185935             0.17228924084
     30.812727554            0.15883786100
Cl    S
     51.923789434           -0.10009298909
      5.7045760975           0.60841752753
      2.3508376809           0.54352153355
Cl    S
      0.44605124672          1.0000000
Cl    S
      0.16848856190          1.0000000
Cl    P
    307.66790569            -0.87801484118E-02
     72.102015515           -0.63563355471E-01
     22.532680262           -0.24016428276
      7.8991765444          -0.47798866557
      2.8767268321          -0.38515850005
Cl    P
      0.77459363955          1.0000000
Cl    P
      0.21037699698          1.0000000
Cl    D
      0.6500000              1.0000000
END

#DFT
dft
  grid medium
  convergence energy 1e-07
  mult 1
  iterations 30
  xc mpw91 perdew91
end

#OPT
driver
  default
  maxiter 100
end

set driver:linopt 0

#TASK
task dft optimize
task dft freq numerical

================================================================================

         Total DFT energy =    -1518.036318224991
@ Step       Energy      Delta E   Gmax     Grms     Xrms     Xmax   Walltime
@ ---- ---------------- -------- -------- -------- -------- -------- --------
@    0   -1518.03631822  0.0D+00  0.02530  0.00870  0.00000  0.00000      4.9
         Total DFT energy =    -1518.037726027035
@    1   -1518.03772603 -1.4D-03  0.00336  0.00107  0.02812  0.07621      8.7
         Total DFT energy =    -1518.037742157662
@    2   -1518.03774216 -1.6D-05  0.00042  0.00013  0.00245  0.00812     12.0
         Total DFT energy =    -1518.037742388704
@    3   -1518.03774239 -2.3D-07  0.00000  0.00000  0.00031  0.00102     14.9
@    3   -1518.03774239 -2.3D-07  0.00000  0.00000  0.00031  0.00102     14.9

 Output coordinates in angstroms (scale by  1.889725989 to convert to a.u.)

  No.       Tag          Charge          X              Y              Z
 ---- ---------------- ---------- -------------- -------------- --------------
    1 C                    6.0000     0.00000000     0.00000000     0.26660673
    2 Cl                  17.0000    -0.11677171    -1.69132987    -0.30732918
    3 Cl                  17.0000     1.52312049     0.74453767    -0.30732918
    4 F                    9.0000     0.00000000     0.00000000     1.60680050
    5 Cl                  17.0000    -1.40634878     0.94679220    -0.30732918

         Total DFT energy =    -1518.037742406812

                       DFT Final Molecular Orbital Analysis
                       ------------------------------------

 Vector    1  Occ=2.000000D+00  E=-1.007183D+02  Symmetry=e+

 Vector    3  Occ=2.000000D+00  E=-1.007182D+02  Symmetry=a

 Vector    4  Occ=2.000000D+00  E=-2.434213D+01  Symmetry=a

 Vector    5  Occ=2.000000D+00  E=-1.015710D+01  Symmetry=a

 Vector    6  Occ=2.000000D+00  E=-9.210654D+00  Symmetry=e+

 Vector    7  Occ=2.000000D+00  E=-9.210654D+00  Symmetry=e+

 Vector    8  Occ=2.000000D+00  E=-9.210605D+00  Symmetry=a

 Vector    9  Occ=2.000000D+00  E=-7.047101D+00  Symmetry=e+

 Vector   10  Occ=2.000000D+00  E=-7.047101D+00  Symmetry=e+

 Vector   11  Occ=2.000000D+00  E=-7.047078D+00  Symmetry=a

 Vector   12  Occ=2.000000D+00  E=-7.034058D+00  Symmetry=e+

 Vector   13  Occ=2.000000D+00  E=-7.034058D+00  Symmetry=e+

 Vector   14  Occ=2.000000D+00  E=-7.034053D+00  Symmetry=a

 Vector   15  Occ=2.000000D+00  E=-7.033957D+00  Symmetry=a

 Vector   16  Occ=2.000000D+00  E=-7.033936D+00  Symmetry=e+

 Vector   17  Occ=2.000000D+00  E=-7.033936D+00  Symmetry=e+

 Vector   18  Occ=2.000000D+00  E=-1.166310D+00  Symmetry=a

 Vector   19  Occ=2.000000D+00  E=-8.587795D-01  Symmetry=a

 Vector   20  Occ=2.000000D+00  E=-7.799864D-01  Symmetry=e+

 Vector   21  Occ=2.000000D+00  E=-7.799864D-01  Symmetry=e+

 Vector   22  Occ=2.000000D+00  E=-6.003415D-01  Symmetry=a

 Vector   23  Occ=2.000000D+00  E=-5.065550D-01  Symmetry=a

 Vector   24  Occ=2.000000D+00  E=-4.899891D-01  Symmetry=e+

 Vector   25  Occ=2.000000D+00  E=-4.899891D-01  Symmetry=e+

 Vector   26  Occ=2.000000D+00  E=-3.778876D-01  Symmetry=e+

 Vector   27  Occ=2.000000D+00  E=-3.778876D-01  Symmetry=e+

 Vector   28  Occ=2.000000D+00  E=-3.269211D-01  Symmetry=a

 Vector   29  Occ=2.000000D+00  E=-3.174685D-01  Symmetry=e+

 Vector   30  Occ=2.000000D+00  E=-3.174685D-01  Symmetry=e+

 Vector   31  Occ=2.000000D+00  E=-2.885514D-01  Symmetry=e+

 Vector   32  Occ=2.000000D+00  E=-2.885514D-01  Symmetry=e+

 Vector   33  Occ=2.000000D+00  E=-2.757203D-01  Symmetry=a

 Vector   34  Occ=0.000000D+00  E=-7.349670D-02  Symmetry=a

 Vector   35  Occ=0.000000D+00  E=-2.255137D-02  Symmetry=e+

 Vector   36  Occ=0.000000D+00  E=-2.255137D-02  Symmetry=e+

 Vector   37  Occ=0.000000D+00  E= 5.827479D-02  Symmetry=a

 Vector   38  Occ=0.000000D+00  E= 3.143066D-01  Symmetry=a

 Vector   39  Occ=0.000000D+00  E= 3.654959D-01  Symmetry=e+

 Vector   40  Occ=0.000000D+00  E= 3.654959D-01  Symmetry=e+

 Vector   41  Occ=0.000000D+00  E= 3.940488D-01  Symmetry=a

 Vector   42  Occ=0.000000D+00  E= 4.831524D-01  Symmetry=e+

 Vector   43  Occ=0.000000D+00  E= 4.831524D-01  Symmetry=e+

 Vector   44  Occ=0.000000D+00  E= 5.853175D-01  Symmetry=a

 Vector   45  Occ=0.000000D+00  E= 5.976031D-01  Symmetry=e+

 Vector   46  Occ=0.000000D+00  E= 5.976031D-01  Symmetry=e+

 Vector   47  Occ=0.000000D+00  E= 6.519259D-01  Symmetry=a

 Vector   48  Occ=0.000000D+00  E= 6.594116D-01  Symmetry=e+

 Vector   49  Occ=0.000000D+00  E= 6.594116D-01  Symmetry=e+

 Vector   50  Occ=0.000000D+00  E= 6.799290D-01  Symmetry=a

 Vector   51  Occ=0.000000D+00  E= 6.824385D-01  Symmetry=e+

 Vector   52  Occ=0.000000D+00  E= 6.824385D-01  Symmetry=e+

 Vector   53  Occ=0.000000D+00  E= 6.908720D-01  Symmetry=a

 Vector   54  Occ=0.000000D+00  E= 6.961226D-01  Symmetry=e+

 Vector   55  Occ=0.000000D+00  E= 6.961226D-01  Symmetry=e+

 Vector   56  Occ=0.000000D+00  E= 7.078595D-01  Symmetry=a

 Vector   57  Occ=0.000000D+00  E= 7.576513D-01  Symmetry=e+

 Vector   58  Occ=0.000000D+00  E= 7.576513D-01  Symmetry=e+

 Vector   59  Occ=0.000000D+00  E= 7.578226D-01  Symmetry=a

 Vector   60  Occ=0.000000D+00  E= 7.954659D-01  Symmetry=e+

 Vector   61  Occ=0.000000D+00  E= 7.954659D-01  Symmetry=e+

 Vector   62  Occ=0.000000D+00  E= 9.561072D-01  Symmetry=a

 Vector   63  Occ=0.000000D+00  E= 9.649170D-01  Symmetry=a

 Vector   64  Occ=0.000000D+00  E= 1.008197D+00  Symmetry=e+

 Vector   65  Occ=0.000000D+00  E= 1.008197D+00  Symmetry=e+

 Vector   66  Occ=0.000000D+00  E= 1.167625D+00  Symmetry=a

 Vector   67  Occ=0.000000D+00  E= 1.168264D+00  Symmetry=e+

 Vector   68  Occ=0.000000D+00  E= 1.168264D+00  Symmetry=e+

 Vector   69  Occ=0.000000D+00  E= 1.272644D+00  Symmetry=a

 Vector   70  Occ=0.000000D+00  E= 1.315947D+00  Symmetry=e+

 Vector   71  Occ=0.000000D+00  E= 1.315947D+00  Symmetry=e+

 Vector   72  Occ=0.000000D+00  E= 1.608439D+00  Symmetry=e+

 Vector   73  Occ=0.000000D+00  E= 1.608439D+00  Symmetry=e+

 Vector   74  Occ=0.000000D+00  E= 1.805448D+00  Symmetry=a

 Vector   75  Occ=0.000000D+00  E= 1.972185D+00  Symmetry=a

 Vector   76  Occ=0.000000D+00  E= 1.986446D+00  Symmetry=e+

 Vector   77  Occ=0.000000D+00  E= 1.986446D+00  Symmetry=e+

 Vector   78  Occ=0.000000D+00  E= 2.928940D+00  Symmetry=e+

 Vector   79  Occ=0.000000D+00  E= 2.928940D+00  Symmetry=e+

 Vector   80  Occ=0.000000D+00  E= 3.167037D+00  Symmetry=e+

 Vector   81  Occ=0.000000D+00  E= 3.167037D+00  Symmetry=e+

 Vector   82  Occ=0.000000D+00  E= 3.625757D+00  Symmetry=a

     Multipole analysis of the density
     ---------------------------------

     L   x y z        total         alpha         beta         nuclear
     -   - - -        -----         -----         ----         -------
     0   0 0 0     -0.000000    -33.000000    -33.000000     66.000000

     1   1 0 0     -0.000000     -0.000000     -0.000000      0.000000
     1   0 1 0     -0.000000     -0.000000     -0.000000      0.000000
     1   0 0 1     -0.082937     -0.407184     -0.407184      0.731431

     2   2 0 0    -34.376758   -148.055254   -148.055254    261.733750
     2   1 1 0     -0.000000      0.000000      0.000000     -0.000000
     2   1 0 1     -0.000000     -0.000000     -0.000000      0.000000
     2   0 2 0    -34.376758   -148.055254   -148.055254    261.733750
     2   0 1 1      0.000000      0.000000      0.000000     -0.000000

         Total DFT energy =    -1518.037729346526
         Total DFT energy =    -1518.037729411766
         Total DFT energy =    -1518.037729395790
         Total DFT energy =    -1518.037729368465
         Total DFT energy =    -1518.037722201720
         Total DFT energy =    -1518.037722481212
         Total DFT energy =    -1518.037738586345
         Total DFT energy =    -1518.037738578785
         Total DFT energy =    -1518.037738595500
         Total DFT energy =    -1518.037738579307
         Total DFT energy =    -1518.037723433736
         Total DFT energy =    -1518.037723159645
         Total DFT energy =    -1518.037735622141
         Total DFT energy =    -1518.037735689178
         Total DFT energy =    -1518.037738151130
         Total DFT energy =    -1518.037738114048
         Total DFT energy =    -1518.037739318954
         Total DFT energy =    -1518.037739316248
 Zero-Point correction to Energy  =    6.820 kcal/mol  (  0.010869 au)
 Thermal correction to Energy     =   10.129 kcal/mol  (  0.016141 au)
 Thermal correction to Enthalpy   =   10.721 kcal/mol  (  0.017085 au)
 Total Entropy                    =   74.386 cal/mol-K
   - Translational                =   40.614 cal/mol-K (mol. weight = 135.9050)
   - Rotational                   =   25.706 cal/mol-K (symmetry #  =        3)
   - Vibrational                  =    8.066 cal/mol-K
   - Translational                  =    2.979 cal/mol-K
   - Rotational                     =    2.979 cal/mol-K
   - Vibrational                    =   11.006 cal/mol-K
 P.Frequency       -0.00       -0.00        0.00        0.00        0.00        0.00
 P.Frequency      233.41      233.41      339.80      385.12      385.12      516.94
 P.Frequency      787.89      787.89     1103.70

 Normal Eigenvalue ||           Projected Infra Red Intensities
  Mode   [cm**-1]  || [atomic units] [(debye/angs)**2] [(KM/mol)] [arbitrary]
 ------ ---------- || -------------- ----------------- ---------- -----------
    1       -0.000 ||    0.000001           0.000         0.001       0.000
    2       -0.000 ||    0.000004           0.000         0.004       0.001
    3        0.000 ||    0.000004           0.000         0.004       0.001
    4        0.000 ||    0.000001           0.000         0.001       0.000
    5        0.000 ||    0.000002           0.000         0.002       0.000
    6        0.000 ||    0.000001           0.000         0.001       0.000
    7      233.411 ||    0.000008           0.000         0.007       0.001
    8      233.411 ||    0.000008           0.000         0.007       0.001
    9      339.804 ||    0.000010           0.000         0.010       0.002
   10      385.116 ||    0.001164           0.027         1.135       0.213
   11      385.116 ||    0.001164           0.027         1.135       0.213
   12      516.936 ||    0.004625           0.107         4.509       0.845
   13      787.886 ||    0.295219           6.811       287.794      53.935
   14      787.886 ||    0.295219           6.811       287.794      53.935
   15     1103.701 ||    0.223610           5.159       217.986      40.852
 ----------------------------------------------------------------------------

 Total times  cpu:      158.7s     wall:      139.0s
