============================== echo of input deck ==============================
ECHO

start molecule

#MEMORY
memory 3584 mb

#TITLE
title "CFCl4"

charge 0

#GEOMETRY
geometry units angstroms print xyz autosym
C          0.01249        0.78594        0.06926
Cl         1.79048        0.78594        0.06926
Cl        -0.58017        1.81550       -1.25361
F         -0.44802        1.27613        1.27601
Cl        -0.58017       -0.87448       -0.16093
end

BASIS "ao basis" SPHERICAL PRINT
#BASIS SET: (7s,4p,1d) -> [3s,2p,1d]
C    S
   1238.4016938              0.54568832082E-02
    186.29004992             0.40638409211E-01
     42.251176346            0.18025593888
     11.676557932            0.46315121755
      3.5930506482           0.44087173314
C    S
      0.40245147363          1.0000000
C    S
      0.13090182668          1.0000000
C    P
      9.4680970621           0.38387871728E-01
      2.0103545142           0.21117025112
      0.54771004707          0.51328172114
C    P
      0.15268613795          1.0000000
C    D
      0.8000000              1.0000000
#BASIS SET: (7s,4p,1d) -> [3s,2p,1d]
F    S
   2894.8325990             -0.53408255515E-02
    435.41939120            -0.39904258866E-01
     98.843328866           -0.17912768038
     27.485198001           -0.46758090825
      8.5405498171          -0.44653131020
F    S
      1.0654578038           1.0000000
F    S
      0.33247346748          1.0000000
F    P
     22.696633924           -0.45212874436E-01
      4.9872339257          -0.23754317067
      1.3491613954          -0.51287353587
F    P
      0.34829881977          1.0000000
F    D
      1.4000000              1.0000000
#BASIS SET: (10s,7p,1d) -> [4s,3p,1d]
Cl    S
  10449.8275660              0.19708362484E-02
   1571.7365221              0.14754727977E-01
    357.12065523             0.66679112875E-01
    100.25185935             0.17228924084
     30.812727554            0.15883786100
Cl    S
     51.923789434           -0.10009298909
      5.7045760975           0.60841752753
      2.3508376809           0.54352153355
Cl    S
      0.44605124672          1.0000000
Cl    S
      0.16848856190          1.0000000
Cl    P
    307.66790569            -0.87801484118E-02
     72.102015515           -0.63563355471E-01
     22.532680262           -0.24016428276
      7.8991765444          -0.47798866557
      2.8767268321          -0.38515850005
Cl    P
      0.77459363955          1.0000000
Cl    P
      0.21037699698          1.0000000
Cl    D
      0.6500000              1.0000000
END

#DFT
dft
  grid medium
  convergence energy 1e-07
  mult 1
  iterations 30
  xc pw6b95
end

#OPT
driver
  default
  maxiter 100
end

set driver:linopt 0

#TASK
task dft optimize
task dft freq numerical

================================================================================

         Total DFT energy =    -1519.198071690423
@ Step       Energy      Delta E   Gmax     Grms     Xrms     Xmax   Walltime
@ ---- ---------------- -------- -------- -------- -------- -------- --------
@    0   -1519.19807169  0.0D+00  0.04196  0.01444  0.00000  0.00000      5.8
         Total DFT energy =    -1519.200981229005
@    1   -1519.20098123 -2.9D-03  0.00743  0.00248  0.03142  0.10126     10.7
         Total DFT energy =    -1519.201049926732
@    2   -1519.20104993 -6.9D-05  0.00150  0.00048  0.00553  0.01879     15.2
         Total DFT energy =    -1519.201052461762
@    3   -1519.20105246 -2.5D-06  0.00007  0.00002  0.00079  0.00269     18.8
         Total DFT energy =    -1519.201052576024
@    4   -1519.20105258 -1.1D-07  0.00001  0.00000  0.00004  0.00011     22.0
@    4   -1519.20105258 -1.1D-07  0.00001  0.00000  0.00004  0.00011     22.0

 Output coordinates in angstroms (scale by  1.889725989 to convert to a.u.)

  No.       Tag          Charge          X              Y              Z
 ---- ---------------- ---------- -------------- -------------- --------------
    1 C                    6.0000     0.00000000     0.00000000     0.26299371
    2 Cl                  17.0000    -0.11531072    -1.67016885    -0.30015846
    3 Cl                  17.0000     1.50406401     0.73522241    -0.30015846
    4 F                    9.0000     0.00000000    -0.00000000     1.58890137
    5 Cl                  17.0000    -1.38875329     0.93494644    -0.30015846

         Total DFT energy =    -1519.201052590459

                       DFT Final Molecular Orbital Analysis
                       ------------------------------------

 Vector    1  Occ=2.000000D+00  E=-1.019382D+02  Symmetry=e+

 Vector    3  Occ=2.000000D+00  E=-1.019381D+02  Symmetry=a

 Vector    4  Occ=2.000000D+00  E=-2.493758D+01  Symmetry=a

 Vector    5  Occ=2.000000D+00  E=-1.056281D+01  Symmetry=a

 Vector    6  Occ=2.000000D+00  E=-9.601847D+00  Symmetry=e+

 Vector    7  Occ=2.000000D+00  E=-9.601847D+00  Symmetry=e+

 Vector    8  Occ=2.000000D+00  E=-9.601809D+00  Symmetry=a

 Vector    9  Occ=2.000000D+00  E=-7.343005D+00  Symmetry=e+

 Vector   10  Occ=2.000000D+00  E=-7.343005D+00  Symmetry=e+

 Vector   11  Occ=2.000000D+00  E=-7.342983D+00  Symmetry=a

 Vector   12  Occ=2.000000D+00  E=-7.332360D+00  Symmetry=e+

 Vector   13  Occ=2.000000D+00  E=-7.332360D+00  Symmetry=e+

 Vector   14  Occ=2.000000D+00  E=-7.332355D+00  Symmetry=a

 Vector   15  Occ=2.000000D+00  E=-7.332272D+00  Symmetry=a

 Vector   16  Occ=2.000000D+00  E=-7.332255D+00  Symmetry=e+

 Vector   17  Occ=2.000000D+00  E=-7.332255D+00  Symmetry=e+

 Vector   18  Occ=2.000000D+00  E=-1.311679D+00  Symmetry=a

 Vector   19  Occ=2.000000D+00  E=-9.693744D-01  Symmetry=a

 Vector   20  Occ=2.000000D+00  E=-8.811174D-01  Symmetry=e+

 Vector   21  Occ=2.000000D+00  E=-8.811174D-01  Symmetry=e+

 Vector   22  Occ=2.000000D+00  E=-6.864007D-01  Symmetry=a

 Vector   23  Occ=2.000000D+00  E=-5.796391D-01  Symmetry=a

 Vector   24  Occ=2.000000D+00  E=-5.716556D-01  Symmetry=e+

 Vector   25  Occ=2.000000D+00  E=-5.716556D-01  Symmetry=e+

 Vector   26  Occ=2.000000D+00  E=-4.506814D-01  Symmetry=e+

 Vector   27  Occ=2.000000D+00  E=-4.506814D-01  Symmetry=e+

 Vector   28  Occ=2.000000D+00  E=-3.884252D-01  Symmetry=a

 Vector   29  Occ=2.000000D+00  E=-3.767860D-01  Symmetry=e+

 Vector   30  Occ=2.000000D+00  E=-3.767860D-01  Symmetry=e+

 Vector   31  Occ=2.000000D+00  E=-3.463449D-01  Symmetry=e+

 Vector   32  Occ=2.000000D+00  E=-3.463449D-01  Symmetry=e+

 Vector   33  Occ=2.000000D+00  E=-3.320466D-01  Symmetry=a

 Vector   34  Occ=0.000000D+00  E=-1.753253D-02  Symmetry=a

 Vector   35  Occ=0.000000D+00  E= 3.436097D-02  Symmetry=e+

 Vector   36  Occ=0.000000D+00  E= 3.436097D-02  Symmetry=e+

 Vector   37  Occ=0.000000D+00  E= 1.213607D-01  Symmetry=a

 Vector   38  Occ=0.000000D+00  E= 3.593322D-01  Symmetry=a

 Vector   39  Occ=0.000000D+00  E= 4.131040D-01  Symmetry=e+

 Vector   40  Occ=0.000000D+00  E= 4.131040D-01  Symmetry=e+

 Vector   41  Occ=0.000000D+00  E= 4.644401D-01  Symmetry=a

 Vector   42  Occ=0.000000D+00  E= 5.386714D-01  Symmetry=e+

 Vector   43  Occ=0.000000D+00  E= 5.386714D-01  Symmetry=e+

 Vector   44  Occ=0.000000D+00  E= 6.369618D-01  Symmetry=a

 Vector   45  Occ=0.000000D+00  E= 6.572257D-01  Symmetry=e+

 Vector   46  Occ=0.000000D+00  E= 6.572257D-01  Symmetry=e+

 Vector   47  Occ=0.000000D+00  E= 7.188163D-01  Symmetry=a

 Vector   48  Occ=0.000000D+00  E= 7.251323D-01  Symmetry=e+

 Vector   49  Occ=0.000000D+00  E= 7.251323D-01  Symmetry=e+

 Vector   50  Occ=0.000000D+00  E= 7.456042D-01  Symmetry=a

 Vector   51  Occ=0.000000D+00  E= 7.494217D-01  Symmetry=e+

 Vector   52  Occ=0.000000D+00  E= 7.494217D-01  Symmetry=e+

 Vector   53  Occ=0.000000D+00  E= 7.591119D-01  Symmetry=a

 Vector   54  Occ=0.000000D+00  E= 7.710305D-01  Symmetry=e+

 Vector   55  Occ=0.000000D+00  E= 7.710305D-01  Symmetry=e+

 Vector   56  Occ=0.000000D+00  E= 7.852528D-01  Symmetry=a

 Vector   57  Occ=0.000000D+00  E= 8.258281D-01  Symmetry=e+

 Vector   58  Occ=0.000000D+00  E= 8.258281D-01  Symmetry=e+

 Vector   59  Occ=0.000000D+00  E= 8.273591D-01  Symmetry=a

 Vector   60  Occ=0.000000D+00  E= 8.670230D-01  Symmetry=e+

 Vector   61  Occ=0.000000D+00  E= 8.670230D-01  Symmetry=e+

 Vector   62  Occ=0.000000D+00  E= 1.034201D+00  Symmetry=a

 Vector   63  Occ=0.000000D+00  E= 1.040739D+00  Symmetry=a

 Vector   64  Occ=0.000000D+00  E= 1.086585D+00  Symmetry=e+

 Vector   65  Occ=0.000000D+00  E= 1.086585D+00  Symmetry=e+

 Vector   66  Occ=0.000000D+00  E= 1.244789D+00  Symmetry=a

 Vector   67  Occ=0.000000D+00  E= 1.254514D+00  Symmetry=e+

 Vector   68  Occ=0.000000D+00  E= 1.254514D+00  Symmetry=e+

 Vector   69  Occ=0.000000D+00  E= 1.354641D+00  Symmetry=a

 Vector   70  Occ=0.000000D+00  E= 1.409776D+00  Symmetry=e+

 Vector   71  Occ=0.000000D+00  E= 1.409776D+00  Symmetry=e+

 Vector   72  Occ=0.000000D+00  E= 1.678891D+00  Symmetry=e+

 Vector   73  Occ=0.000000D+00  E= 1.678891D+00  Symmetry=e+

 Vector   74  Occ=0.000000D+00  E= 1.881987D+00  Symmetry=a

 Vector   75  Occ=0.000000D+00  E= 2.054685D+00  Symmetry=e+

 Vector   76  Occ=0.000000D+00  E= 2.054685D+00  Symmetry=e+

 Vector   77  Occ=0.000000D+00  E= 2.074005D+00  Symmetry=a

 Vector   78  Occ=0.000000D+00  E= 3.046366D+00  Symmetry=e+

 Vector   79  Occ=0.000000D+00  E= 3.046366D+00  Symmetry=e+

 Vector   80  Occ=0.000000D+00  E= 3.296504D+00  Symmetry=e+

 Vector   81  Occ=0.000000D+00  E= 3.296504D+00  Symmetry=e+

 Vector   82  Occ=0.000000D+00  E= 3.760279D+00  Symmetry=a

     Multipole analysis of the density
     ---------------------------------

     L   x y z        total         alpha         beta         nuclear
     -   - - -        -----         -----         ----         -------
     0   0 0 0     -0.000000    -33.000000    -33.000000     66.000000

     1   1 0 0     -0.000000     -0.000000     -0.000000     -0.000000
     1   0 1 0      0.000000     -0.000000     -0.000000      0.000000
     1   0 0 1     -0.136788     -0.606959     -0.606959      1.077131

     2   2 0 0    -34.288626   -144.757000   -144.757000    255.225373
     2   1 1 0     -0.000000     -0.000000     -0.000000      0.000000
     2   1 0 1     -0.000000     -0.000000     -0.000000      0.000000
     2   0 2 0    -34.288626   -144.757000   -144.757000    255.225373
     2   0 1 1      0.000000      0.000000      0.000000      0.000000

         Total DFT energy =    -1519.201052323349
         Total DFT energy =    -1519.201052838964
         Total DFT energy =    -1519.201052508610
         Total DFT energy =    -1519.201052558309
         Total DFT energy =    -1519.201044320637
         Total DFT energy =    -1519.201046117270
         Total DFT energy =    -1519.201063548910
         Total DFT energy =    -1519.201063598581
         Total DFT energy =    -1519.201063529173
         Total DFT energy =    -1519.201063599382
         Total DFT energy =    -1519.201046671406
         Total DFT energy =    -1519.201045611332
         Total DFT energy =    -1519.201059853005
         Total DFT energy =    -1519.201059957644
         Total DFT energy =    -1519.201062888334
         Total DFT energy =    -1519.201062803332
         Total DFT energy =    -1519.201064411461
         Total DFT energy =    -1519.201064179618
 Zero-Point correction to Energy  =    7.249 kcal/mol  (  0.011552 au)
 Thermal correction to Energy     =   10.465 kcal/mol  (  0.016677 au)
 Thermal correction to Enthalpy   =   11.057 kcal/mol  (  0.017621 au)
 Total Entropy                    =   73.751 cal/mol-K
   - Translational                =   40.614 cal/mol-K (mol. weight = 135.9050)
   - Rotational                   =   25.630 cal/mol-K (symmetry #  =        3)
   - Vibrational                  =    7.507 cal/mol-K
   - Translational                  =    2.979 cal/mol-K
   - Rotational                     =    2.979 cal/mol-K
   - Vibrational                    =   10.538 cal/mol-K
 P.Frequency       -0.00       -0.00       -0.00       -0.00        0.00        0.00
 P.Frequency      244.88      244.88      354.66      404.68      404.68      545.91
 P.Frequency      850.51      850.51     1172.58

 Normal Eigenvalue ||           Projected Infra Red Intensities
  Mode   [cm**-1]  || [atomic units] [(debye/angs)**2] [(KM/mol)] [arbitrary]
 ------ ---------- || -------------- ----------------- ---------- -----------
    1       -0.000 ||    0.000009           0.000         0.009       0.002
    2       -0.000 ||    0.000010           0.000         0.009       0.002
    3       -0.000 ||    0.000019           0.000         0.019       0.004
    4       -0.000 ||    0.000020           0.000         0.019       0.004
    5        0.000 ||    0.000000           0.000         0.000       0.000
    6        0.000 ||    0.000000           0.000         0.000       0.000
    7      244.879 ||    0.000003           0.000         0.003       0.001
    8      244.879 ||    0.000003           0.000         0.003       0.001
    9      354.658 ||    0.000043           0.001         0.042       0.008
   10      404.677 ||    0.000006           0.000         0.005       0.001
   11      404.677 ||    0.000006           0.000         0.005       0.001
   12      545.912 ||    0.004071           0.094         3.968       0.751
   13      850.514 ||    0.287828           6.640       280.589      53.096
   14      850.514 ||    0.287828           6.640       280.589      53.096
   15     1172.581 ||    0.233285           5.382       227.417      43.035
 ----------------------------------------------------------------------------

 Total times  cpu:      222.2s     wall:      191.3s
